fubar                                                                   
SP        RPBEPBE                                                     Aug-CC-pVDZ         
Number of atoms                            I                4
Info1-9                                    I   N=           9
          14          13           0           0           0         110
           1          18         902
Full Title                                 C   N=           1
fubar       
Route                                      C   N=           4
#PBEPBE/Aug-cc-pVDZ scf=tight maxdisk=1000GB    
Charge                                     I                0
Multiplicity                               I                1
Number of electrons                        I               14
Number of alpha electrons                  I                7
Number of beta electrons                   I                7
Number of basis functions                  I               64
Number of independent functions            I               64
Number of point charges in /Mol/           I                0
Number of translation vectors              I                0
Atomic numbers                             I   N=           4
           6           6           1           1
Nuclear charges                            R   N=           4
  6.00000000E+00  6.00000000E+00  1.00000000E+00  1.00000000E+00
Current cartesian coordinates              R   N=          12
  0.00000000E+00  0.00000000E+00  1.14304430E+00  1.39982555E-16  0.00000000E+00
 -1.14304430E+00  0.00000000E+00  0.00000000E+00  3.16668019E+00  3.87806476E-16
  0.00000000E+00 -3.16668019E+00
Number of symbols in /Mol/                 I                0
Int Atom Types                             I   N=           4
           0           0           0           0
Force Field                                I                0
Atom Types                                 C   N=           4
                                                
MM charges                                 R   N=           4
  0.00000000E+00  0.00000000E+00  0.00000000E+00  0.00000000E+00
Integer atomic weights                     I   N=           4
          12          12           1           1
Real atomic weights                        R   N=           4
  1.20000000E+01  1.20000000E+01  1.00782504E+00  1.00782504E+00
Atom fragment info                         I   N=           4
           0           0           0           0
Atom residue num                           I   N=           4
           0           0           0           0
Nuclear spins                              I   N=           4
           0           0           1           1
Nuclear ZEff                               R   N=           4
 -3.60000000E+00 -3.60000000E+00 -1.00000000E+00 -1.00000000E+00
Nuclear ZNuc                               R   N=           4
  6.00000000E+00  6.00000000E+00  1.00000000E+00  1.00000000E+00
Nuclear QMom                               R   N=           4
  0.00000000E+00  0.00000000E+00  0.00000000E+00  0.00000000E+00
Nuclear GFac                               R   N=           4
  0.00000000E+00  0.00000000E+00  2.79284600E+00  2.79284600E+00
MicOpt                                     I   N=           4
          -1          -1          -1          -1
Number of residues                         I                0
Number of secondary structures             I                0
SymInf integers                            I   N=          26
           2           8           1           1           1          -1
           1          -1          -1          -1           1           1
          -1          -1          -1           1           1           1
          -1           1           1           1          -1          -1
          -1          -1
RotTr to input orientation                 R   N=          12
  1.00000000E+00  0.00000000E+00  0.00000000E+00  0.00000000E+00  1.00000000E+00
  0.00000000E+00  0.00000000E+00  0.00000000E+00  1.00000000E+00  0.00000000E+00
  0.00000000E+00  0.00000000E+00
Number of contracted shells                I               28
Number of primitive shells                 I               60
Pure/Cartesian d shells                    I                0
Pure/Cartesian f shells                    I                0
Highest angular momentum                   I                2
Largest degree of contraction              I                7
Shell types                                I   N=          28
           0           0           0           0           1           1
           1          -2          -2           0           0           0
           0           1           1           1          -2          -2
           0           0           0           1           1           0
           0           0           1           1
Number of primitives per shell             I   N=          28
           7           7           1           1           3           1
           1           1           1           7           7           1
           1           3           1           1           1           1
           3           1           1           1           1           3
           1           1           1           1
Shell to atom map                          I   N=          28
           1           1           1           1           1           1
           1           1           1           2           2           2
           2           2           2           2           2           2
           3           3           3           3           3           4
           4           4           4           4
Primitive exponents                        R   N=          60
  6.66500000E+03  1.00000000E+03  2.28000000E+02  6.47100000E+01  2.10600000E+01
  7.49500000E+00  2.79700000E+00  6.66500000E+03  2.28000000E+02  6.47100000E+01
  2.10600000E+01  7.49500000E+00  2.79700000E+00  5.21500000E-01  1.59600000E-01
  4.69000000E-02  9.43900000E+00  2.00200000E+00  5.45600000E-01  1.51700000E-01
  4.04100000E-02  5.50000000E-01  1.51000000E-01  6.66500000E+03  1.00000000E+03
  2.28000000E+02  6.47100000E+01  2.10600000E+01  7.49500000E+00  2.79700000E+00
  6.66500000E+03  2.28000000E+02  6.47100000E+01  2.10600000E+01  7.49500000E+00
  2.79700000E+00  5.21500000E-01  1.59600000E-01  4.69000000E-02  9.43900000E+00
  2.00200000E+00  5.45600000E-01  1.51700000E-01  4.04100000E-02  5.50000000E-01
  1.51000000E-01  1.30100000E+01  1.96200000E+00  4.44600000E-01  1.22000000E-01
  2.97400000E-02  7.27000000E-01  1.41000000E-01  1.30100000E+01  1.96200000E+00
  4.44600000E-01  1.22000000E-01  2.97400000E-02  7.27000000E-01  1.41000000E-01
Contraction coefficients                   R   N=          60
  6.93516317E-04  5.34150243E-03  2.71366714E-02  1.01992385E-01  2.75508636E-01
  4.51086433E-01  2.87565745E-01  7.73354740E-06  2.78072137E-04 -2.57875654E-03
 -8.95087684E-03 -1.06058855E-01 -1.31517686E-01  1.09948660E+00  1.00000000E+00
  1.00000000E+00  5.69792516E-02  3.13207212E-01  7.60376742E-01  1.00000000E+00
  1.00000000E+00  1.00000000E+00  1.00000000E+00  6.93516317E-04  5.34150243E-03
  2.71366714E-02  1.01992385E-01  2.75508636E-01  4.51086433E-01  2.87565745E-01
  7.73354740E-06  2.78072137E-04 -2.57875654E-03 -8.95087684E-03 -1.06058855E-01
 -1.31517686E-01  1.09948660E+00  1.00000000E+00  1.00000000E+00  5.69792516E-02
  3.13207212E-01  7.60376742E-01  1.00000000E+00  1.00000000E+00  1.00000000E+00
  1.00000000E+00  3.34987264E-02  2.34800801E-01  8.13682958E-01  1.00000000E+00
  1.00000000E+00  1.00000000E+00  1.00000000E+00  3.34987264E-02  2.34800801E-01
  8.13682958E-01  1.00000000E+00  1.00000000E+00  1.00000000E+00  1.00000000E+00
Coordinates of each shell                  R   N=          84
  0.00000000E+00  0.00000000E+00  1.14304430E+00  0.00000000E+00  0.00000000E+00
  1.14304430E+00  0.00000000E+00  0.00000000E+00  1.14304430E+00  0.00000000E+00
  0.00000000E+00  1.14304430E+00  0.00000000E+00  0.00000000E+00  1.14304430E+00
  0.00000000E+00  0.00000000E+00  1.14304430E+00  0.00000000E+00  0.00000000E+00
  1.14304430E+00  0.00000000E+00  0.00000000E+00  1.14304430E+00  0.00000000E+00
  0.00000000E+00  1.14304430E+00  1.39982555E-16  0.00000000E+00 -1.14304430E+00
  1.39982555E-16  0.00000000E+00 -1.14304430E+00  1.39982555E-16  0.00000000E+00
 -1.14304430E+00  1.39982555E-16  0.00000000E+00 -1.14304430E+00  1.39982555E-16
  0.00000000E+00 -1.14304430E+00  1.39982555E-16  0.00000000E+00 -1.14304430E+00
  1.39982555E-16  0.00000000E+00 -1.14304430E+00  1.39982555E-16  0.00000000E+00
 -1.14304430E+00  1.39982555E-16  0.00000000E+00 -1.14304430E+00  0.00000000E+00
  0.00000000E+00  3.16668019E+00  0.00000000E+00  0.00000000E+00  3.16668019E+00
  0.00000000E+00  0.00000000E+00  3.16668019E+00  0.00000000E+00  0.00000000E+00
  3.16668019E+00  0.00000000E+00  0.00000000E+00  3.16668019E+00  3.87806476E-16
  0.00000000E+00 -3.16668019E+00  3.87806476E-16  0.00000000E+00 -3.16668019E+00
  3.87806476E-16  0.00000000E+00 -3.16668019E+00  3.87806476E-16  0.00000000E+00
 -3.16668019E+00  3.87806476E-16  0.00000000E+00 -3.16668019E+00
Num ILSW                                   I              100
ILSW                                       I   N=         100
           0           0           0           0           2           0
           0           0           0           0        1009134217728000
           5           0           0           0           0           0
           0           0           0           0           0           0
           1           0           0           0           0           0
           0           0      100000           0          -1           0
           0           0           0           0           0           0
           0           0           0           1           0           0
           0 -2000000000           1           0           0           0
           0           0           4          52           0           0
           0           0           0           0           0           0
           0           0           0           4           0           1
           0           0           0           0           0           0
           0           0           0           0           0           0
           0           0           0           0           0           0
           0           0           0           0           0           0
           0           0           0           0
Num RLSW                                   I               52
RLSW                                       R   N=          52
  1.00000000E+00  1.00000000E+00  1.00000000E+00  1.00000000E+00  0.00000000E+00
  0.00000000E+00  0.00000000E+00  1.00000000E+00  0.00000000E+00  0.00000000E+00
  0.00000000E+00  0.00000000E+00  1.00000000E+00  0.00000000E+00  0.00000000E+00
  0.00000000E+00  0.00000000E+00  1.00000000E+00  0.00000000E+00  0.00000000E+00
  0.00000000E+00  0.00000000E+00  1.00000000E+00  0.00000000E+00  0.00000000E+00
  0.00000000E+00  0.00000000E+00  1.00000000E+00  0.00000000E+00  0.00000000E+00
  0.00000000E+00  0.00000000E+00  1.00000000E+00  0.00000000E+00  0.00000000E+00
  0.00000000E+00  0.00000000E+00  0.00000000E+00  1.00000000E+00  1.00000000E+00
  0.00000000E+00  1.00000000E+00  0.00000000E+00  0.00000000E+00  0.00000000E+00
  0.00000000E+00  0.00000000E+00  0.00000000E+00  0.00000000E+00  0.00000000E+00
  0.00000000E+00  0.00000000E+00
MxBond                                     I                2
NBond                                      I   N=           4
           2           2           1           1
IBond                                      I   N=           8
           2           3           1           4           1           0
           2           0
RBond                                      R   N=           8
  3.00000000E+00  1.00000000E+00  3.00000000E+00  1.00000000E+00  1.00000000E+00
  0.00000000E+00  1.00000000E+00  0.00000000E+00
Virial Ratio                               R      2.006313501233495E+00
SCF Energy                                 R     -7.722782679586263E+01
Total Energy                               R     -7.722782679586263E+01
RMS Density                                R      1.326866956925425E-09
Job Status                                 I                1
Nuclear derivative order                   I                0
External E-field                           R   N=          35
  0.00000000E+00  0.00000000E+00  0.00000000E+00  0.00000000E+00  0.00000000E+00
  0.00000000E+00  0.00000000E+00  0.00000000E+00  0.00000000E+00  0.00000000E+00
  0.00000000E+00  0.00000000E+00  0.00000000E+00  0.00000000E+00  0.00000000E+00
  0.00000000E+00  0.00000000E+00  0.00000000E+00  0.00000000E+00  0.00000000E+00
  0.00000000E+00  0.00000000E+00  0.00000000E+00  0.00000000E+00  0.00000000E+00
  0.00000000E+00  0.00000000E+00  0.00000000E+00  0.00000000E+00  0.00000000E+00
  0.00000000E+00  0.00000000E+00  0.00000000E+00  0.00000000E+00  0.00000000E+00
IOpCl                                      I                0
IROHF                                      I                0
Alpha Orbital Energies                     R   N=          64
 -9.91220032E+00 -9.91026424E+00 -6.85263970E-01 -5.15842651E-01 -4.46012333E-01
 -2.62668068E-01 -2.62668068E-01 -1.57604505E-02 -1.57604505E-02 -2.82514198E-03
  4.13347932E-03  5.36279252E-02  5.36279252E-02  5.47982088E-02  7.43970237E-02
  1.09382347E-01  1.09382347E-01  1.14308680E-01  1.45914059E-01  2.15116457E-01
  2.41510627E-01  2.70391071E-01  2.70391071E-01  2.82833715E-01  2.82833723E-01
  3.61249070E-01  3.61249070E-01  3.92288213E-01  4.11854636E-01  4.49337683E-01
  4.49337691E-01  4.60057543E-01  5.61434087E-01  5.63869669E-01  5.63869669E-01
  6.47387409E-01  6.47387409E-01  6.49128826E-01  6.49128826E-01  6.78799161E-01
  7.35269343E-01  9.27923526E-01  9.70317450E-01  9.70317450E-01  1.12823225E+00
  1.26669780E+00  1.26669781E+00  1.35307486E+00  1.36403248E+00  1.36403248E+00
  1.41977787E+00  1.56974269E+00  1.56974271E+00  1.62015116E+00  1.62015116E+00
  1.80450012E+00  1.80450012E+00  2.17159634E+00  2.20413822E+00  2.26176251E+00
  2.41077355E+00  2.41077355E+00  3.37933575E+00  3.57029912E+00
Alpha MO coefficients                      R   N=        4096
  7.04643566E-01  2.63739728E-02 -1.99503976E-02 -1.45510518E-02  0.00000000E+00
  0.00000000E+00  1.87484665E-03  0.00000000E+00  0.00000000E+00 -2.38637070E-03
  0.00000000E+00  0.00000000E+00 -6.21434576E-03  1.77304951E-03  0.00000000E+00
  0.00000000E+00  8.45930703E-17  0.00000000E+00 -9.50104636E-03  0.00000000E+00
  0.00000000E+00  6.54649143E-17  0.00000000E+00  7.04643566E-01  2.63739728E-02
 -1.99503976E-02 -1.45510518E-02  0.00000000E+00  0.00000000E+00 -1.87484665E-03
  0.00000000E+00  0.00000000E+00  2.38637070E-03  0.00000000E+00  0.00000000E+00
  6.21434576E-03  1.77304951E-03  0.00000000E+00  0.00000000E+00  8.45930703E-17
  0.00000000E+00 -9.50104636E-03  0.00000000E+00  0.00000000E+00  6.54649143E-17
  0.00000000E+00 -9.52994586E-04  2.38988719E-02  6.13830915E-03  0.00000000E+00
  0.00000000E+00  2.49245763E-03  0.00000000E+00  0.00000000E+00 -4.22099956E-03
 -9.52994586E-04  2.38988719E-02  6.13830915E-03  0.00000000E+00  0.00000000E+00
 -2.49245763E-03  0.00000000E+00  0.00000000E+00  4.22099956E-03  7.05571181E-01
  3.28318319E-02 -1.02950718E-01 -9.83747814E-02  0.00000000E+00  0.00000000E+00
 -2.73370273E-03  0.00000000E+00  0.00000000E+00  4.69129570E-02  0.00000000E+00
  0.00000000E+00  2.58797227E-02  6.40434099E-03  0.00000000E+00  0.00000000E+00
 -3.14633961E-16  0.00000000E+00 -1.20106465E-02  0.00000000E+00  0.00000000E+00
  1.96033085E-16  0.00000000E+00 -7.05571181E-01 -3.28318319E-02  1.02950718E-01
  9.83747814E-02  0.00000000E+00  0.00000000E+00 -2.73370273E-03  0.00000000E+00
  0.00000000E+00  4.69129570E-02  0.00000000E+00  0.00000000E+00  2.58797227E-02
 -6.40434099E-03  0.00000000E+00  0.00000000E+00  3.14633961E-16  0.00000000E+00
  1.20106465E-02  0.00000000E+00  0.00000000E+00 -1.96033085E-16  0.00000000E+00
 -4.29324980E-03  3.76731562E-03 -1.01628949E-02  0.00000000E+00  0.00000000E+00
  3.70725896E-03  0.00000000E+00  0.00000000E+00 -2.22036509E-04  4.29324980E-03
 -3.76731562E-03  1.01628949E-02  0.00000000E+00  0.00000000E+00  3.70725896E-03
  0.00000000E+00  0.00000000E+00 -2.22036509E-04 -1.68223718E-01  3.22336127E-01
  3.13976437E-01  1.94518167E-02  0.00000000E+00  0.00000000E+00 -1.57777652E-01
  0.00000000E+00  0.00000000E+00  4.80399881E-02  0.00000000E+00  0.00000000E+00
  2.21267075E-02  1.37580395E-02  0.00000000E+00  0.00000000E+00 -8.03301317E-17
  0.00000000E+00 -1.42370144E-02  0.00000000E+00  0.00000000E+00  9.41142160E-17
  0.00000000E+00 -1.68223718E-01  3.22336127E-01  3.13976437E-01  1.94518167E-02
  0.00000000E+00  0.00000000E+00  1.57777652E-01  0.00000000E+00  0.00000000E+00
 -4.80399881E-02  0.00000000E+00  0.00000000E+00 -2.21267075E-02  1.37580395E-02
  0.00000000E+00  0.00000000E+00 -8.03301317E-17  0.00000000E+00 -1.42370144E-02
  0.00000000E+00  0.00000000E+00  9.41142160E-17  0.00000000E+00  9.71167681E-02
 -9.86478547E-02 -6.76093400E-03  0.00000000E+00  0.00000000E+00 -1.74367536E-02
  0.00000000E+00  0.00000000E+00  4.00564672E-02  9.71167681E-02 -9.86478547E-02
 -6.76093400E-03  0.00000000E+00  0.00000000E+00  1.74367536E-02  0.00000000E+00
  0.00000000E+00 -4.00564672E-02  1.10596254E-01 -2.19640530E-01 -3.40737547E-01
  4.69357180E-01  0.00000000E+00  0.00000000E+00 -2.06021814E-01  0.00000000E+00
  0.00000000E+00  2.99927237E-01  0.00000000E+00  0.00000000E+00 -1.03380296E-01
  5.76070352E-03  0.00000000E+00  0.00000000E+00 -1.13671201E-16  0.00000000E+00
  7.81876666E-03  0.00000000E+00  0.00000000E+00  2.71102730E-16  0.00000000E+00
 -1.10596254E-01  2.19640530E-01  3.40737547E-01 -4.69357180E-01  0.00000000E+00
  0.00000000E+00 -2.06021814E-01  0.00000000E+00  0.00000000E+00  2.99927237E-01
  0.00000000E+00  0.00000000E+00 -1.03380296E-01 -5.76070352E-03  0.00000000E+00
  0.00000000E+00  1.13671201E-16  0.00000000E+00 -7.81876666E-03  0.00000000E+00
  0.00000000E+00 -2.71102730E-16  0.00000000E+00 -3.04986764E-01 -4.01268540E-01
  2.94511018E-02  0.00000000E+00  0.00000000E+00  2.48369649E-02  0.00000000E+00
  0.00000000E+00  9.82138144E-02  3.04986764E-01  4.01268540E-01 -2.94511018E-02
  0.00000000E+00  0.00000000E+00  2.48369649E-02  0.00000000E+00  0.00000000E+00
  9.82138144E-02 -6.01707849E-04  6.02870603E-03 -2.57666668E-01 -3.54042585E-02
  0.00000000E+00  0.00000000E+00  3.91554502E-01  0.00000000E+00  0.00000000E+00
 -9.65661609E-02  0.00000000E+00  0.00000000E+00 -1.29866775E-02  4.22594363E-03
  0.00000000E+00  0.00000000E+00  5.08521655E-17  0.00000000E+00  3.15813407E-02
  0.00000000E+00  0.00000000E+00 -4.04647049E-17  0.00000000E+00 -6.01707849E-04
  6.02870603E-03 -2.57666668E-01 -3.54042585E-02  0.00000000E+00  0.00000000E+00
 -3.91554502E-01  0.00000000E+00  0.00000000E+00  9.65661609E-02  0.00000000E+00
  0.00000000E+00  1.29866775E-02  4.22594363E-03  0.00000000E+00  0.00000000E+00
  5.08521655E-17  0.00000000E+00  3.15813407E-02  0.00000000E+00  0.00000000E+00
 -4.04647049E-17  0.00000000E+00  3.00053847E-01  3.70058679E-01  1.87607767E-02
  0.00000000E+00  0.00000000E+00 -1.23769926E-02  0.00000000E+00  0.00000000E+00
 -1.15876450E-01  3.00053847E-01  3.70058679E-01  1.87607767E-02  0.00000000E+00
  0.00000000E+00  1.23769926E-02  0.00000000E+00  0.00000000E+00  1.15876450E-01
  0.00000000E+00  0.00000000E+00  0.00000000E+00  0.00000000E+00  0.00000000E+00
  4.32429262E-01  0.00000000E+00  0.00000000E+00  2.25661839E-01  0.00000000E+00
  0.00000000E+00  2.71801031E-02  0.00000000E+00  0.00000000E+00  0.00000000E+00
 -2.04005823E-02  0.00000000E+00  0.00000000E+00  0.00000000E+00  0.00000000E+00
  7.25956786E-03  0.00000000E+00  0.00000000E+00  0.00000000E+00  0.00000000E+00
  0.00000000E+00  0.00000000E+00  0.00000000E+00  4.32429262E-01  0.00000000E+00
  0.00000000E+00  2.25661839E-01  0.00000000E+00  0.00000000E+00  2.71801031E-02
  0.00000000E+00  0.00000000E+00  0.00000000E+00  2.04005823E-02  0.00000000E+00
  0.00000000E+00  0.00000000E+00  0.00000000E+00 -7.25956786E-03  0.00000000E+00
  0.00000000E+00  0.00000000E+00  0.00000000E+00  0.00000000E+00  0.00000000E+00
  1.77745429E-02  0.00000000E+00  0.00000000E+00  5.35513299E-03  0.00000000E+00
  0.00000000E+00  0.00000000E+00  0.00000000E+00  0.00000000E+00  1.77745429E-02
  0.00000000E+00  0.00000000E+00  5.35513299E-03  0.00000000E+00  0.00000000E+00
  0.00000000E+00  0.00000000E+00  0.00000000E+00  4.32429262E-01  0.00000000E+00
  0.00000000E+00  2.25661839E-01  0.00000000E+00  0.00000000E+00  2.71801031E-02
  0.00000000E+00  0.00000000E+00  0.00000000E+00 -2.04005823E-02  0.00000000E+00
  0.00000000E+00  0.00000000E+00  0.00000000E+00  7.25956786E-03  0.00000000E+00
  0.00000000E+00  0.00000000E+00  0.00000000E+00  0.00000000E+00  0.00000000E+00
  0.00000000E+00  4.32429262E-01  0.00000000E+00  0.00000000E+00  2.25661839E-01
  0.00000000E+00  0.00000000E+00  2.71801031E-02  0.00000000E+00  0.00000000E+00
  0.00000000E+00  2.04005823E-02  0.00000000E+00  0.00000000E+00  0.00000000E+00
  0.00000000E+00 -7.25956786E-03  0.00000000E+00  0.00000000E+00  0.00000000E+00
  0.00000000E+00  0.00000000E+00  0.00000000E+00  1.77745429E-02  0.00000000E+00
  0.00000000E+00  5.35513299E-03  0.00000000E+00  0.00000000E+00  0.00000000E+00
  0.00000000E+00  0.00000000E+00  1.77745429E-02  0.00000000E+00  0.00000000E+00
  5.35513299E-03  0.00000000E+00  0.00000000E+00  0.00000000E+00  0.00000000E+00
  0.00000000E+00  0.00000000E+00  0.00000000E+00  3.96535429E-01  0.00000000E+00
  0.00000000E+00  3.19453846E-01  0.00000000E+00  0.00000000E+00  6.64040833E-01
  0.00000000E+00  0.00000000E+00  0.00000000E+00  4.43000180E-02  0.00000000E+00
  0.00000000E+00  0.00000000E+00  0.00000000E+00  6.21283099E-02  0.00000000E+00
  0.00000000E+00  0.00000000E+00  0.00000000E+00  0.00000000E+00  0.00000000E+00
  0.00000000E+00 -3.96535429E-01  0.00000000E+00  0.00000000E+00 -3.19453846E-01
  0.00000000E+00  0.00000000E+00 -6.64040833E-01  0.00000000E+00  0.00000000E+00
  0.00000000E+00  4.43000180E-02  0.00000000E+00  0.00000000E+00  0.00000000E+00
  0.00000000E+00  6.21283099E-02  0.00000000E+00  0.00000000E+00  0.00000000E+00
  0.00000000E+00  0.00000000E+00  0.00000000E+00  2.71075156E-02  0.00000000E+00
  0.00000000E+00  7.06360020E-02  0.00000000E+00  0.00000000E+00  0.00000000E+00
  0.00000000E+00  0.00000000E+00 -2.71075156E-02  0.00000000E+00  0.00000000E+00
 -7.06360020E-02  0.00000000E+00  0.00000000E+00  0.00000000E+00  0.00000000E+00
  0.00000000E+00  3.96535429E-01  0.00000000E+00  0.00000000E+00  3.19453846E-01
  0.00000000E+00  0.00000000E+00  6.64040833E-01  0.00000000E+00  0.00000000E+00
  0.00000000E+00  4.43000180E-02  0.00000000E+00  0.00000000E+00  0.00000000E+00
  0.00000000E+00  6.21283099E-02  0.00000000E+00  0.00000000E+00  0.00000000E+00
  0.00000000E+00  0.00000000E+00  0.00000000E+00  0.00000000E+00 -3.96535429E-01
  0.00000000E+00  0.00000000E+00 -3.19453846E-01  0.00000000E+00  0.00000000E+00
 -6.64040833E-01  0.00000000E+00  0.00000000E+00  0.00000000E+00  4.43000180E-02
  0.00000000E+00  0.00000000E+00  0.00000000E+00  0.00000000E+00  6.21283099E-02
  0.00000000E+00  0.00000000E+00  0.00000000E+00  0.00000000E+00  0.00000000E+00
  0.00000000E+00  2.71075156E-02  0.00000000E+00  0.00000000E+00  7.06360020E-02
  0.00000000E+00  0.00000000E+00  0.00000000E+00  0.00000000E+00  0.00000000E+00
 -2.71075156E-02  0.00000000E+00  0.00000000E+00 -7.06360020E-02  0.00000000E+00
  0.00000000E+00  3.09792997E-02 -5.75645493E-02 -3.27193105E-01 -1.20861194E+00
  0.00000000E+00  0.00000000E+00 -7.61977450E-02  0.00000000E+00  0.00000000E+00
 -1.72258299E-01  0.00000000E+00  0.00000000E+00 -6.42796486E-01 -9.11802674E-03
  0.00000000E+00  0.00000000E+00 -1.47899003E-17  0.00000000E+00 -7.71797859E-02
  0.00000000E+00  0.00000000E+00  4.96728246E-16  0.00000000E+00  3.09792997E-02
 -5.75645493E-02 -3.27193105E-01 -1.20861194E+00  0.00000000E+00  0.00000000E+00
  7.61977450E-02  0.00000000E+00  0.00000000E+00  1.72258299E-01  0.00000000E+00
  0.00000000E+00  6.42796486E-01 -9.11802674E-03  0.00000000E+00  0.00000000E+00
 -1.47899003E-17  0.00000000E+00 -7.71797859E-02  0.00000000E+00  0.00000000E+00
  4.96728246E-16  0.00000000E+00 -3.59360572E-02  5.25607684E-01  1.48948694E+00
  0.00000000E+00  0.00000000E+00  8.70118734E-03  0.00000000E+00  0.00000000E+00
 -6.48892059E-02 -3.59360572E-02  5.25607684E-01  1.48948694E+00  0.00000000E+00
  0.00000000E+00 -8.70118734E-03  0.00000000E+00  0.00000000E+00  6.48892059E-02
  4.86950173E-02 -1.28628281E-01  2.20161725E-01  3.96636458E+00  0.00000000E+00
  0.00000000E+00 -7.08904359E-02  0.00000000E+00  0.00000000E+00 -5.11744433E-01
  0.00000000E+00  0.00000000E+00 -1.98496065E+00  1.86590722E-02  0.00000000E+00
  0.00000000E+00  5.01569446E-16  0.00000000E+00  5.92485192E-02  0.00000000E+00
  0.00000000E+00 -1.44765791E-15  0.00000000E+00 -4.86950173E-02  1.28628281E-01
 -2.20161725E-01 -3.96636458E+00  0.00000000E+00  0.00000000E+00 -7.08904359E-02
  0.00000000E+00  0.00000000E+00 -5.11744433E-01  0.00000000E+00  0.00000000E+00
 -1.98496065E+00 -1.86590722E-02  0.00000000E+00  0.00000000E+00 -5.01569446E-16
  0.00000000E+00 -5.92485192E-02  0.00000000E+00  0.00000000E+00  1.44765791E-15
  0.00000000E+00  4.87209475E-02  4.47100151E-01  2.71966054E+00  0.00000000E+00
  0.00000000E+00  1.93792614E-02  0.00000000E+00  0.00000000E+00  3.07027596E-02
 -4.87209475E-02 -4.47100151E-01 -2.71966054E+00  0.00000000E+00  0.00000000E+00
  1.93792614E-02  0.00000000E+00  0.00000000E+00  3.07027596E-02  0.00000000E+00
  0.00000000E+00  0.00000000E+00  0.00000000E+00 -1.51242702E-01  0.00000000E+00
  0.00000000E+00 -1.93780104E-01  0.00000000E+00  0.00000000E+00  5.81553341E-01
  0.00000000E+00  0.00000000E+00  0.00000000E+00  1.24419961E-02  0.00000000E+00
  0.00000000E+00  0.00000000E+00  0.00000000E+00  6.05135897E-03  0.00000000E+00
  0.00000000E+00  0.00000000E+00  0.00000000E+00  0.00000000E+00  0.00000000E+00
  0.00000000E+00 -1.51242702E-01  0.00000000E+00  0.00000000E+00 -1.93780104E-01
  0.00000000E+00  0.00000000E+00  5.81553341E-01  0.00000000E+00  0.00000000E+00
  0.00000000E+00 -1.24419961E-02  0.00000000E+00  0.00000000E+00  0.00000000E+00
  0.00000000E+00 -6.05135897E-03  0.00000000E+00  0.00000000E+00  0.00000000E+00
  0.00000000E+00  0.00000000E+00  0.00000000E+00  4.56391323E-03  0.00000000E+00
  0.00000000E+00  2.58959653E-02  0.00000000E+00  0.00000000E+00  0.00000000E+00
  0.00000000E+00  0.00000000E+00  4.56391323E-03  0.00000000E+00  0.00000000E+00
  2.58959653E-02  0.00000000E+00  0.00000000E+00  0.00000000E+00  0.00000000E+00
  0.00000000E+00  0.00000000E+00  0.00000000E+00 -1.51242702E-01  0.00000000E+00
  0.00000000E+00 -1.93780104E-01  0.00000000E+00  0.00000000E+00  5.81553341E-01
  0.00000000E+00  0.00000000E+00  0.00000000E+00  1.24419961E-02  0.00000000E+00
  0.00000000E+00  0.00000000E+00  0.00000000E+00  6.05135897E-03  0.00000000E+00
  0.00000000E+00  0.00000000E+00  0.00000000E+00  0.00000000E+00  0.00000000E+00
  0.00000000E+00 -1.51242702E-01  0.00000000E+00  0.00000000E+00 -1.93780104E-01
  0.00000000E+00  0.00000000E+00  5.81553341E-01  0.00000000E+00  0.00000000E+00
  0.00000000E+00 -1.24419961E-02  0.00000000E+00  0.00000000E+00  0.00000000E+00
  0.00000000E+00 -6.05135897E-03  0.00000000E+00  0.00000000E+00  0.00000000E+00
  0.00000000E+00  0.00000000E+00  0.00000000E+00  4.56391323E-03  0.00000000E+00
  0.00000000E+00  2.58959653E-02  0.00000000E+00  0.00000000E+00  0.00000000E+00
  0.00000000E+00  0.00000000E+00  4.56391323E-03  0.00000000E+00  0.00000000E+00
  2.58959653E-02  0.00000000E+00 -1.36425441E-03  9.27232122E-03  4.81730741E-01
  5.76320610E-01  0.00000000E+00  0.00000000E+00 -1.86411221E-01  0.00000000E+00
  0.00000000E+00  1.30687501E-01  0.00000000E+00  0.00000000E+00  1.72981676E+00
  3.66032893E-02  0.00000000E+00  0.00000000E+00  2.00021298E-17  0.00000000E+00
 -9.18194889E-02  0.00000000E+00  0.00000000E+00 -5.88065212E-16  0.00000000E+00
 -1.36425441E-03  9.27232122E-03  4.81730741E-01  5.76320610E-01  0.00000000E+00
  0.00000000E+00  1.86411221E-01  0.00000000E+00  0.00000000E+00 -1.30687501E-01
  0.00000000E+00  0.00000000E+00 -1.72981676E+00  3.66032893E-02  0.00000000E+00
  0.00000000E+00  2.00021298E-17  0.00000000E+00 -9.18194889E-02  0.00000000E+00
  0.00000000E+00 -5.88065212E-16  0.00000000E+00  1.10862824E-01 -1.87997376E-01
 -5.65446326E-01  0.00000000E+00  0.00000000E+00  2.80397997E-02  0.00000000E+00
  0.00000000E+00  2.52292271E-01  1.10862824E-01 -1.87997376E-01 -5.65446326E-01
  0.00000000E+00  0.00000000E+00 -2.80397997E-02  0.00000000E+00  0.00000000E+00
 -2.52292271E-01 -7.33819272E-02  1.21130844E-01  2.40069523E+00  2.73017964E+01
  0.00000000E+00  0.00000000E+00  5.71568992E-02  0.00000000E+00  0.00000000E+00
 -1.26219078E+00  0.00000000E+00  0.00000000E+00 -1.07085049E+01 -1.65562544E-02
  0.00000000E+00  0.00000000E+00  1.19144682E-16  0.00000000E+00  2.67010210E-01
  0.00000000E+00  0.00000000E+00 -2.53296606E-15  0.00000000E+00  7.33819272E-02
 -1.21130844E-01 -2.40069523E+00 -2.73017964E+01  0.00000000E+00  0.00000000E+00
  5.71568992E-02  0.00000000E+00  0.00000000E+00 -1.26219078E+00  0.00000000E+00
  0.00000000E+00 -1.07085049E+01  1.65562544E-02  0.00000000E+00  0.00000000E+00
 -1.19144682E-16  0.00000000E+00 -2.67010210E-01  0.00000000E+00  0.00000000E+00
  2.53296606E-15  0.00000000E+00 -1.48413522E-01 -3.79335423E-01  8.10173766E+00
  0.00000000E+00  0.00000000E+00 -2.29264393E-02  0.00000000E+00  0.00000000E+00
 -7.03710323E-02  1.48413522E-01  3.79335423E-01 -8.10173766E+00  0.00000000E+00
  0.00000000E+00 -2.29264393E-02  0.00000000E+00  0.00000000E+00 -7.03710323E-02
  0.00000000E+00  0.00000000E+00  0.00000000E+00  0.00000000E+00 -2.60519885E-01