fubar                                                                   
Freq      RPBEPBE                                                     6-31+G(d,p)         
Number of atoms                            I                5
Info1-9                                    I   N=           9
          14          14        1002           0           0         100
           6          18         902
Full Title                                 C   N=           1
fubar       
Route                                      C   N=           6
#PBEPBE/6-31+g** scf=tight opt pop=npa density=current freq 
maxdisk=70GB
Charge                                     I                0
Multiplicity                               I                1
Number of electrons                        I               10
Number of alpha electrons                  I                5
Number of beta electrons                   I                5
Number of basis functions                  I               39
Number of independent functions            I               39
Number of point charges in /Mol/           I                0
Number of translation vectors              I                0
Atomic numbers                             I   N=           5
           6           1           1           1           1
Nuclear charges                            R   N=           5
  6.00000000E+00  1.00000000E+00  1.00000000E+00  1.00000000E+00  1.00000000E+00
Current cartesian coordinates              R   N=          15
  0.00000000E+00  2.54402791E-04  1.84889275E-32 -8.87134311E-01 -8.08042031E-01
  1.69638409E+00 -8.87134311E-01 -8.08042031E-01 -1.69638409E+00  2.02910211E+00
 -4.47729431E-01  1.38839519E-27 -2.54833491E-01  2.06228708E+00 -2.77679039E-28
Number of symbols in /Mol/                 I                0
Int Atom Types                             I   N=           5
           0           0           0           0           0
Force Field                                I                0
Atom Types                                 C   N=           5
                                                            
MM charges                                 R   N=           5
  0.00000000E+00  0.00000000E+00  0.00000000E+00  0.00000000E+00  0.00000000E+00
Integer atomic weights                     I   N=           5
          12           1           1           1           1
Real atomic weights                        R   N=           5
  1.20000000E+01  1.00782504E+00  1.00782504E+00  1.00782504E+00  1.00782504E+00
Atom fragment info                         I   N=           5
           0           0           0           0           0
Atom residue num                           I   N=           5
           0           0           0           0           0
Nuclear spins                              I   N=           5
           0           1           1           1           1
Nuclear ZEff                               R   N=           5
 -3.60000000E+00 -1.00000000E+00 -1.00000000E+00 -1.00000000E+00 -1.00000000E+00
Nuclear ZNuc                               R   N=           5
  6.00000000E+00  1.00000000E+00  1.00000000E+00  1.00000000E+00  1.00000000E+00
Nuclear QMom                               R   N=           5
  0.00000000E+00  0.00000000E+00  0.00000000E+00  0.00000000E+00  0.00000000E+00
Nuclear GFac                               R   N=           5
  0.00000000E+00  2.79284600E+00  2.79284600E+00  2.79284600E+00  2.79284600E+00
MicOpt                                     I   N=           5
          -1          -1          -1          -1          -1
Number of residues                         I                0
Number of secondary structures             I                0
Redundant internal dimensions              I   N=           4
          14           4           6           4
Redundant internal coordinate indices      I   N=          56
           1           2           0           0           1           3
           0           0           1           4           0           0
           1           5           0           0           2           1
           3           0           2           1           4           0
           2           1           5           0           3           1
           4           0           3           1           5           0
           4           1           5           0           2           1
           4           3           2           1           5           3
           2           1           5           4           3           1
           5           4
Redundant internal coordinates             R   N=          14
  2.07799648E+00  2.07799648E+00  2.07796653E+00  2.07771963E+00  1.91014498E+00
  1.91030083E+00  1.91100113E+00  1.91030083E+00  1.91100113E+00  1.91105005E+00
  2.09339064E+00 -2.09424781E+00  2.09446875E+00 -2.09446875E+00
ZRed-IntVec                                I   N=          14
           0           0           0           0           0           0
           0           0           0           0           0           0
           0           0
ZRed-FPVec                                 R   N=          14
  0.00000000E+00  0.00000000E+00  0.00000000E+00  0.00000000E+00  0.00000000E+00
  0.00000000E+00  0.00000000E+00  0.00000000E+00  0.00000000E+00  0.00000000E+00
  0.00000000E+00  0.00000000E+00  0.00000000E+00  0.00000000E+00
ZRed-Constraint1                           R   N=          14
  2.07799648E+00  2.07799648E+00  2.07796653E+00  2.07771963E+00  1.91014498E+00
  1.91030083E+00  1.91100113E+00  1.91030083E+00  1.91100113E+00  1.91105005E+00
  2.09339064E+00 -2.09424781E+00  2.09446875E+00 -2.09446875E+00
ZRed-Constraint2                           R   N=          14
  2.05775459E+00  2.05775459E+00  2.05780136E+00  2.05814423E+00  1.90889775E+00
  1.90939344E+00  1.91199315E+00  1.90939344E+00  1.91199315E+00  1.91212217E+00
  2.09075981E+00 -2.09393689E+00  2.09462421E+00 -2.09462421E+00
SymInf integers                            I   N=          26
           2           2           1           1           1           1
           1          -1           0           0           0           0
           0           0           0           0           0           0
           0           0           0           0           0           0
           0           0
RotTr to input orientation                 R   N=          12
 -2.28090767E-12 -9.92468125E-01 -1.22503147E-01 -2.34111988E-13 -1.22503147E-01
  9.92468125E-01 -1.00000000E+00  2.29240761E-12  4.70696821E-14 -2.65925336E-17
 -1.33210355E-04  3.51199971E+00
Number of contracted shells                I               17
Number of primitive shells                 I               32
Pure/Cartesian d shells                    I                1
Pure/Cartesian f shells                    I                0
Highest angular momentum                   I                2
Largest degree of contraction              I                6
Shell types                                I   N=          17
           0          -1          -1          -1           2           0
           0           1           0           0           1           0
           0           1           0           0           1
Number of primitives per shell             I   N=          17
           6           3           1           1           1           3
           1           1           3           1           1           3
           1           1           3           1           1
Shell to atom map                          I   N=          17
           1           1           1           1           1           2
           2           2           3           3           3           4
           4           4           5           5           5
Primitive exponents                        R   N=          32
  3.04752488E+03  4.57369518E+02  1.03948685E+02  2.92101553E+01  9.28666296E+00
  3.16392696E+00  7.86827235E+00  1.88128854E+00  5.44249258E-01  1.68714478E-01
  4.38000000E-02  8.00000000E-01  1.87311370E+01  2.82539436E+00  6.40121692E-01
  1.61277759E-01  1.10000000E+00  1.87311370E+01  2.82539436E+00  6.40121692E-01
  1.61277759E-01  1.10000000E+00  1.87311370E+01  2.82539436E+00  6.40121692E-01
  1.61277759E-01  1.10000000E+00  1.87311370E+01  2.82539436E+00  6.40121692E-01
  1.61277759E-01  1.10000000E+00
Contraction coefficients                   R   N=          32
  1.83473713E-03  1.40373228E-02  6.88426223E-02  2.32184443E-01  4.67941348E-01
  3.62311985E-01 -1.19332420E-01 -1.60854152E-01  1.14345644E+00  1.00000000E+00
  1.00000000E+00  1.00000000E+00  3.34946043E-02  2.34726953E-01  8.13757326E-01
  1.00000000E+00  1.00000000E+00  3.34946043E-02  2.34726953E-01  8.13757326E-01
  1.00000000E+00  1.00000000E+00  3.34946043E-02  2.34726953E-01  8.13757326E-01
  1.00000000E+00  1.00000000E+00  3.34946043E-02  2.34726953E-01  8.13757326E-01
  1.00000000E+00  1.00000000E+00
P(S=P) Contraction coefficients            R   N=          32
  0.00000000E+00  0.00000000E+00  0.00000000E+00  0.00000000E+00  0.00000000E+00
  0.00000000E+00  6.89990666E-02  3.16423961E-01  7.44308291E-01  1.00000000E+00
  1.00000000E+00  0.00000000E+00  0.00000000E+00  0.00000000E+00  0.00000000E+00
  0.00000000E+00  0.00000000E+00  0.00000000E+00  0.00000000E+00  0.00000000E+00
  0.00000000E+00  0.00000000E+00  0.00000000E+00  0.00000000E+00  0.00000000E+00
  0.00000000E+00  0.00000000E+00  0.00000000E+00  0.00000000E+00  0.00000000E+00
  0.00000000E+00  0.00000000E+00
Coordinates of each shell                  R   N=          51
  0.00000000E+00  2.54402791E-04  1.84889275E-32  0.00000000E+00  2.54402791E-04
  1.84889275E-32  0.00000000E+00  2.54402791E-04  1.84889275E-32  0.00000000E+00
  2.54402791E-04  1.84889275E-32  0.00000000E+00  2.54402791E-04  1.84889275E-32
 -8.87134311E-01 -8.08042031E-01  1.69638409E+00 -8.87134311E-01 -8.08042031E-01
  1.69638409E+00 -8.87134311E-01 -8.08042031E-01  1.69638409E+00 -8.87134311E-01
 -8.08042031E-01 -1.69638409E+00 -8.87134311E-01 -8.08042031E-01 -1.69638409E+00
 -8.87134311E-01 -8.08042031E-01 -1.69638409E+00  2.02910211E+00 -4.47729431E-01
  5.80601626E-28  2.02910211E+00 -4.47729431E-01  5.80601626E-28  2.02910211E+00
 -4.47729431E-01  5.80601626E-28 -2.54833491E-01  2.06228708E+00 -1.89326617E-28
 -2.54833491E-01  2.06228708E+00 -1.89326617E-28 -2.54833491E-01  2.06228708E+00
 -1.89326617E-28
Num ILSW                                   I              100
ILSW                                       I   N=         100
           0           1           0           0           2           0
           0           0           0           0        1009  9395240960
           5           0           0           0           2           0
           0           0           0           0           1           0
           1           0           0           0           0           0
           0           0      100000           0          -1           0
           0           0           0           0           0           0
           0           0           0           1           0           0
           0 -2000000000           1           0           0           0
           0           0           4          52           0           0
           0           0           0           0           0           0
           0           0           0           5           0           1
           0           0           0           0           0           0
           0           0           0           0           0           0
           0           0           0           0           0           0
           0           0           0           0           0           0
           0           0           0           0
Num RLSW                                   I               52
RLSW                                       R   N=          52
  1.00000000E+00  1.00000000E+00  1.00000000E+00  1.00000000E+00  0.00000000E+00
  0.00000000E+00  0.00000000E+00  1.00000000E+00  0.00000000E+00  0.00000000E+00
  0.00000000E+00  0.00000000E+00  1.00000000E+00  0.00000000E+00  0.00000000E+00
  0.00000000E+00  0.00000000E+00  1.00000000E+00  0.00000000E+00  0.00000000E+00
  0.00000000E+00  0.00000000E+00  1.00000000E+00  0.00000000E+00  0.00000000E+00
  0.00000000E+00  0.00000000E+00  1.00000000E+00  0.00000000E+00  0.00000000E+00
  0.00000000E+00  0.00000000E+00  1.00000000E+00  0.00000000E+00  0.00000000E+00
  0.00000000E+00  0.00000000E+00  0.00000000E+00  1.00000000E+00  1.00000000E+00
  0.00000000E+00  1.00000000E+00  0.00000000E+00  0.00000000E+00  0.00000000E+00
  0.00000000E+00  0.00000000E+00  0.00000000E+00  0.00000000E+00  0.00000000E+00
  0.00000000E+00  0.00000000E+00
MxBond                                     I                4
NBond                                      I   N=           5
           4           1           1           1           1
IBond                                      I   N=          20
           2           3           4           5           1           0
           0           0           1           0           0           0
           1           0           0           0           1           0
           0           0
RBond                                      R   N=          20
  1.00000000E+00  1.00000000E+00  1.00000000E+00  1.00000000E+00  1.00000000E+00
  0.00000000E+00  0.00000000E+00  0.00000000E+00  1.00000000E+00  0.00000000E+00
  0.00000000E+00  0.00000000E+00  1.00000000E+00  0.00000000E+00  0.00000000E+00
  0.00000000E+00  1.00000000E+00  0.00000000E+00  0.00000000E+00  0.00000000E+00
Virial Ratio                               R      2.011711830498125E+00
SCF Energy                                 R     -4.045239855854383E+01
Total Energy                               R     -4.045239855854383E+01
RMS Force                                  R      5.260477639855058E-05
RMS Density                                R      2.369967365399149E-10
NImag                                      I                0
Job Status                                 I                1
Nuclear derivative order                   I                2
Thermal Energy                             R     -4.040572994153069E+01
Thermal Enthalpy                           R     -4.040478575671705E+01
Thermal Free Energy                        R     -4.042829352540447E+01
External E-field                           R   N=          35
  0.00000000E+00  0.00000000E+00  0.00000000E+00  0.00000000E+00  0.00000000E+00
  0.00000000E+00  0.00000000E+00  0.00000000E+00  0.00000000E+00  0.00000000E+00
  0.00000000E+00  0.00000000E+00  0.00000000E+00  0.00000000E+00  0.00000000E+00
  0.00000000E+00  0.00000000E+00  0.00000000E+00  0.00000000E+00  0.00000000E+00
  0.00000000E+00  0.00000000E+00  0.00000000E+00  0.00000000E+00  0.00000000E+00
  0.00000000E+00  0.00000000E+00  0.00000000E+00  0.00000000E+00  0.00000000E+00
  0.00000000E+00  0.00000000E+00  0.00000000E+00  0.00000000E+00  0.00000000E+00
IOpCl                                      I                0
IROHF                                      I                0
Alpha Orbital Energies                     R   N=          39
 -9.88477843E+00 -6.24053332E-01 -3.44622548E-01 -3.44513655E-01 -3.44493646E-01
  4.70354991E-03  5.33332590E-02  5.33475824E-02  5.33503353E-02  1.52197561E-01
  1.52215186E-01  1.52309778E-01  2.51554057E-01  6.03662889E-01  6.03700521E-01
  6.03705375E-01  8.61982996E-01  8.62014066E-01  8.62182021E-01  9.95946935E-01
  1.06890116E+00  1.29230196E+00  1.29231431E+00  1.96857292E+00  1.96858336E+00
  1.96870958E+00  2.00254125E+00  2.00269500E+00  2.00272055E+00  2.53848504E+00
  2.53856187E+00  2.53922954E+00  2.80804356E+00  2.80807278E+00  3.06778441E+00
  3.32198379E+00  3.32200040E+00  3.32200433E+00  4.33243273E+00
Alpha MO coefficients                      R   N=        1521
  9.92445638E-01  5.30349570E-02  8.08286119E-10 -5.16427999E-07  0.00000000E+00
 -1.64132507E-02  1.27234129E-08  3.02190735E-06  0.00000000E+00 -6.66446458E-04
  2.10222529E-09  7.38782144E-07  0.00000000E+00 -9.93659799E-03 -9.93581403E-03
 -9.93674244E-03 -1.37600710E-07  0.00000000E+00  0.00000000E+00 -3.82984746E-04
  3.16949132E-03 -9.34454475E-05 -8.51848365E-05  1.78707998E-04 -3.82984746E-04
  3.16949132E-03 -9.34454475E-05 -8.51848365E-05 -1.78707998E-04 -3.83066913E-04
  3.16924746E-03  2.13775002E-04 -4.72539894E-05  0.00000000E+00 -3.83648924E-04
  3.16772276E-03 -2.68813724E-05  2.17365976E-04  0.00000000E+00 -2.00041958E-01
  3.80929805E-01 -7.15537776E-07 -6.16832585E-05  0.00000000E+00  3.76172093E-01
 -2.03145433E-07 -4.81466592E-05  0.00000000E+00  1.83163682E-02 -5.36329259E-08
 -4.28584948E-06  0.00000000E+00 -6.58506001E-03 -6.57590862E-03 -6.58714765E-03
 -1.15768141E-06  0.00000000E+00  0.00000000E+00  1.35663074E-01  3.15487588E-02
  5.03930489E-03  4.58932045E-03 -9.63654080E-03  1.35663074E-01  3.15487588E-02
  5.03930489E-03  4.58932045E-03  9.63654080E-03  1.35663341E-01  3.15509625E-02
 -1.15261511E-02  2.54274991E-03  0.00000000E+00  1.35671757E-01  3.15667941E-02
  1.44755263E-03 -1.17139753E-02  0.00000000E+00 -4.30288212E-05  9.68978079E-05
 -5.61737973E-02  4.40984313E-01  0.00000000E+00  7.21489235E-05 -2.58175981E-02
  2.02677827E-01  0.00000000E+00  1.15456957E-06 -5.10404090E-03  4.00670344E-02
  0.00000000E+00 -9.38300656E-03  1.90828240E-02 -9.70968395E-03 -4.08196694E-03
  0.00000000E+00  0.00000000E+00 -9.81118498E-02 -7.63316806E-02 -3.27723268E-03
  7.05118813E-03  4.07682301E-03 -9.81118498E-02 -7.63316806E-02 -3.27723268E-03
  7.05118813E-03 -4.07682301E-03 -9.96910873E-02 -7.75582222E-02  3.80908557E-03
  7.89959555E-03  0.00000000E+00  2.95861679E-01  2.30195842E-01  7.00903362E-04
 -5.94840500E-03  0.00000000E+00 -5.70340016E-06  1.27691974E-05  4.40980444E-01
  5.61720524E-02  0.00000000E+00  1.01764361E-05  2.02716005E-01  2.58219446E-02
  0.00000000E+00  2.84229938E-07  4.00936627E-02  5.10690175E-03  0.00000000E+00
  1.59400638E-02 -2.10067652E-03 -1.38406769E-02 -9.02821648E-03  0.00000000E+00
  0.00000000E+00 -1.39837653E-01 -1.08859051E-01  5.96013310E-03 -1.62035829E-03
  5.80963275E-03 -1.39837653E-01 -1.08859051E-01  5.96013310E-03 -1.62035829E-03
 -5.80963275E-03  2.78555244E-01  2.16846302E-01 -4.84339985E-03  4.19968665E-03
  0.00000000E+00  1.11387654E-03  8.69323832E-04  9.00293586E-03  1.08973845E-03
  0.00000000E+00  0.00000000E+00  0.00000000E+00  0.00000000E+00  0.00000000E+00
  4.44544493E-01  0.00000000E+00  0.00000000E+00  0.00000000E+00  2.04361223E-01
  0.00000000E+00  0.00000000E+00  0.00000000E+00  4.04227753E-02  0.00000000E+00
  0.00000000E+00  0.00000000E+00  0.00000000E+00 -1.44377339E-02 -1.31606006E-02
  2.41557768E-01  1.88062022E-01  5.24783763E-03  4.77917870E-03 -9.63272433E-04
 -2.41557768E-01 -1.88062022E-01 -5.24783763E-03 -4.77917870E-03 -9.63272433E-04
  0.00000000E+00  0.00000000E+00  0.00000000E+00  0.00000000E+00  9.07136815E-03
  0.00000000E+00  0.00000000E+00  0.00000000E+00  0.00000000E+00  9.06933858E-03
  9.55048768E-02 -1.98050554E-01 -3.05259858E-07  1.14119406E-04  0.00000000E+00
 -7.08594074E-01 -2.05806182E-06 -1.33802848E-05  0.00000000E+00  1.42501425E+00
 -3.02414875E-06 -3.75741159E-04  0.00000000E+00  1.13956966E-02  1.13951307E-02
  1.13958510E-02 -3.01783809E-09  0.00000000E+00  0.00000000E+00  1.77667879E-02
 -4.66402605E-02 -5.91717756E-03 -5.38919190E-03  1.13148318E-02  1.77667879E-02
 -4.66402605E-02 -5.91717756E-03 -5.38919190E-03 -1.13148318E-02  1.77698936E-02
 -4.66124664E-02  1.35329283E-02 -2.98568385E-03  0.00000000E+00  1.77858123E-02
 -4.64528599E-02 -1.69874891E-03  1.37476388E-02  0.00000000E+00  2.72125553E-05
 -4.68374047E-05  2.67848989E-02 -2.01138668E-01  0.00000000E+00 -2.33897925E-04
  2.65025201E-02 -1.99052106E-01  0.00000000E+00  4.22434837E-04 -1.53466656E-01
  1.15235739E+00  0.00000000E+00  4.93942313E-03 -9.94154975E-03  5.02105944E-03
  2.09926174E-03  0.00000000E+00  0.00000000E+00  1.78523829E-02  6.14289633E-02
  9.11742211E-04  3.81810553E-03 -2.42225756E-03  1.78523829E-02  6.14289633E-02
  9.11742211E-04  3.81810553E-03  2.42225756E-03  1.85815601E-02  6.39421945E-02
 -3.37008218E-03  3.32975747E-03  0.00000000E+00 -5.43122139E-02 -1.86775912E-01
 -1.46202319E-03  1.16227861E-02  0.00000000E+00  3.96086841E-06 -6.68189477E-06
 -2.01128480E-01 -2.67873578E-02  0.00000000E+00 -3.52770652E-05 -1.99166245E-01
 -2.65311410E-02  0.00000000E+00  5.88743086E-05  1.15235847E+00  1.53464810E-01
  0.00000000E+00 -8.27705362E-03  1.03847529E-03  7.24127294E-03  4.71507850E-03
  0.00000000E+00  0.00000000E+00  2.57785132E-02  8.86264706E-02  4.48953171E-03
  2.01903502E-03 -3.49408065E-03  2.57785132E-02  8.86264706E-02  4.48953171E-03
  2.01903502E-03  3.49408065E-03 -5.10461565E-02 -1.75489216E-01  1.09381216E-02
 -1.47228919E-03  0.00000000E+00 -5.13803548E-04 -1.75770338E-03  2.65337096E-03
  4.39694917E-04  0.00000000E+00  0.00000000E+00  0.00000000E+00  0.00000000E+00
  0.00000000E+00 -2.02899115E-01  0.00000000E+00  0.00000000E+00  0.00000000E+00
 -2.00934677E-01  0.00000000E+00  0.00000000E+00  0.00000000E+00  1.16253365E+00
  0.00000000E+00  0.00000000E+00  0.00000000E+00  0.00000000E+00  7.52369017E-03
  6.85693906E-03 -4.43613112E-02 -1.52502094E-01 -3.14360361E-03 -2.86393455E-03
  8.69681075E-03  4.43613112E-02  1.52502094E-01  3.14360361E-03  2.86393455E-03
  8.69681075E-03  0.00000000E+00  0.00000000E+00  0.00000000E+00  0.00000000E+00
  2.68602539E-03  0.00000000E+00  0.00000000E+00  0.00000000E+00  0.00000000E+00
  2.68746213E-03  0.00000000E+00  0.00000000E+00  0.00000000E+00  0.00000000E+00
 -3.34884945E-01  0.00000000E+00  0.00000000E+00  0.00000000E+00 -1.33172249E+00
  0.00000000E+00  0.00000000E+00  0.00000000E+00 -3.45098658E-01  0.00000000E+00
  0.00000000E+00  0.00000000E+00  0.00000000E+00 -2.60088362E-02 -2.36947868E-02
  1.60901036E-01  1.56288961E+00 -7.21017137E-03 -6.57000678E-03 -1.92786476E-03
 -1.60901036E-01 -1.56288961E+00  7.21017137E-03  6.57000678E-03 -1.92786476E-03
  0.00000000E+00  0.00000000E+00  0.00000000E+00  0.00000000E+00 -1.57205196E-02
  0.00000000E+00  0.00000000E+00  0.00000000E+00  0.00000000E+00 -1.57450194E-02
  1.07285844E-05 -1.73272168E-05 -3.32436374E-01 -4.03200969E-02  0.00000000E+00
 -1.67710601E-04 -1.32221240E+00 -1.60345457E-01  0.00000000E+00 -7.52972274E-05
 -3.42673814E-01 -4.15662157E-02  0.00000000E+00  2.88185349E-02 -3.98734292E-03
 -2.48273461E-02 -1.62064896E-02  0.00000000E+00  0.00000000E+00 -9.27322825E-02
 -9.00926240E-01 -1.14481881E-02  1.89613103E-03 -7.94832920E-03 -9.27322825E-02
 -9.00926240E-01 -1.14481881E-02  1.89613103E-03  7.94832920E-03  1.85935213E-01
  1.80635214E+00  3.45707699E-03 -6.10241444E-03  0.00000000E+00 -4.29970482E-04
 -4.22599745E-03 -1.56263307E-02 -1.94155810E-03  0.00000000E+00  8.37511997E-05
 -1.34439151E-04  4.03051320E-02 -3.32351498E-01  0.00000000E+00 -1.35021159E-03
  1.60491887E-01 -1.32322402E+00  0.00000000E+00 -5.43338831E-04  4.15974530E-02
 -3.43050048E-01  0.00000000E+00 -1.67257777E-02  3.43924182E-02 -1.76363206E-02
 -7.45403542E-03  0.00000000E+00  0.00000000E+00 -6.57858105E-02 -6.39982521E-01
  4.85055336E-03 -1.29310694E-02 -5.64991805E-03 -6.57858105E-02 -6.39982521E-01
  4.85055336E-03 -1.29310694E-02  5.64991805E-03 -6.51619153E-02 -6.33941071E-01
 -4.80052032E-03 -1.41473441E-02  0.00000000E+00  1.97044422E-01  1.91602031E+00
 -6.45231884E-04  4.93062501E-03  0.00000000E+00 -1.53199384E-01  2.17956665E-01
 -1.32178669E-06 -3.41921462E-04  0.00000000E+00  2.97470200E+00 -1.13496611E-05
 -1.43420272E-03  0.00000000E+00  1.87481817E+00 -2.07806487E-06 -7.42973530E-04
  0.00000000E+00 -1.05405712E-02 -1.05413296E-02 -1.05382651E-02 -2.21711011E-06
  0.00000000E+00  0.00000000E+00 -8.87070419E-02 -1.56410563E+00  3.20459116E-03
  2.91713426E-03 -6.12548274E-03 -8.87070419E-02 -1.56410563E+00  3.20459116E-03
  2.91713426E-03  6.12548274E-03 -8.86994016E-02 -1.56384810E+00 -7.32733610E-03
  1.61358391E-03  0.00000000E+00 -8.86492074E-02 -1.56222195E+00  9.18075465E-04
 -7.44315688E-03  0.00000000E+00  2.78543625E-05 -3.29655832E-04  1.43367610E-01
 -9.34247035E-01  0.00000000E+00 -4.07431414E-04 -2.57861410E-01  1.68048116E+00
  0.00000000E+00 -8.29770660E-04  8.66872739E-02 -5.64851720E-01  0.00000000E+00
  2.02894311E-02 -3.97589323E-02  1.93872746E-02  7.99320462E-03  0.00000000E+00
  0.00000000E+00  9.01529556E-02  8.20390909E-02  5.31525396E-03  2.30855129E-02
 -1.48608544E-02  9.01529556E-02  8.20390909E-02  5.31525396E-03  2.30855129E-02
  1.48608544E-02  1.01878379E-01  9.25798174E-02 -2.25379202E-02  2.04403336E-02
  0.00000000E+00 -2.82469877E-01 -2.54399069E-01 -9.43799217E-03  7.25009900E-02
  0.00000000E+00  4.46329587E-06 -5.08913184E-05 -9.34336114E-01 -1.43382690E-01
  0.00000000E+00 -6.62008068E-05  1.67999660E+00  2.57833122E-01  0.00000000E+00
 -1.27700112E-04 -5.64925373E-01 -8.66868072E-02  0.00000000E+00 -3.25744632E-02
  3.33712907E-03  2.92243993E-02  1.89315870E-02  0.00000000E+00  0.00000000E+00
  1.35851011E-01  1.22518633E-01  2.76645525E-02  1.31137227E-02 -2.23811423E-02
  1.35851011E-01  1.22518633E-01  2.76645525E-02  1.31137227E-02  2.23811423E-02
 -2.63447165E-01 -2.37276519E-01  6.78640300E-02 -9.00937282E-03  0.00000000E+00
 -8.29568032E-03 -7.41062830E-03  1.57800942E-02  4.11117575E-03  0.00000000E+00
  0.00000000E+00  0.00000000E+00  0.00000000E+00  0.00000000E+00 -9.45282532E-01
  0.00000000E+00  0.00000000E+00  0.00000000E+00  1.69955468E+00  0.00000000E+00
  0.00000000E+00  0.00000000E+00 -5.71560177E-01  0.00000000E+00  0.00000000E+00
  0.00000000E+00  0.00000000E+00  2.99600841E-02  2.72952760E-02 -2.30633890E-01
 -2.07704746E-01 -1.98689701E-02 -1.81043079E-02  5.41318311E-02  2.30633890E-01
  2.07704746E-01  1.98689701E-02  1.81043079E-02  5.41318311E-02  0.00000000E+00
  0.00000000E+00  0.00000000E+00  0.00000000E+00  1.61446180E-02  0.00000000E+00
  0.00000000E+00  0.00000000E+00  0.00000000E+00  1.61670364E-02  0.00000000E+00
  0.00000000E+00  0.00000000E+00  0.00000000E+00  5.26528717E-01  0.00000000E+00
  0.00000000E+00  0.00000000E+00 -9.44150158E-01  0.00000000E+00  0.00000000E+00
  0.00000000E+00 -3.89675152E-01  0.00000000E+00  0.00000000E+00  0.00000000E+00
  0.00000000E+00  2.06592611E-01  1.88220038E-01 -7.82844089E-01  1.64071779E+00
  4.73118237E-02  4.31024665E-02 -3.14917007E-02  7.82844089E-01 -1.64071779E+00
 -4.73118237E-02 -4.31024665E-02 -3.14917007E-02  0.00000000E+00  0.00000000E+00
  0.00000000E+00  0.00000000E+00  5.89794920E-02  0.00000000E+00  0.00000000E+00
  0.00000000E+00  0.00000000E+00  5.89877207E-02 -1.19807908E-05 -4.62059661E-05
  5.22457748E-01  6.54696957E-02  0.00000000E+00  1.17177016E-04 -9.36882721E-01
 -1.17399363E-01  0.00000000E+00 -7.27356323E-05 -3.86688493E-01 -4.84651369E-02
  0.00000000E+00 -2.28393063E-01  3.05872604E-02  1.97781721E-01  1.28984166E-01
  0.00000000E+00  0.00000000E+00  4.52471376E-01 -9.48412749E-01  3.11771888E-02
 -1.75838815E-02  5.23045518E-02  4.52471376E-01 -9.48412749E-01  3.11771888E-02
 -1.75838815E-02 -5.23045518E-02 -9.03459248E-01  1.89343245E+00 -6.63748854E-02
  3.49066647E-02  0.00000000E+00 -1.74256565E-03  3.53617622E-03  5.85682435E-02
  7.10073666E-03  0.00000000E+00 -9.42235817E-05 -4.10931465E-04 -6.55009068E-02
  5.22611273E-01  0.00000000E+00  1.05537920E-03  1.17483751E-01 -9.37347498E-01
  0.00000000E+00 -5.22050725E-04  4.84748279E-02 -3.86837026E-01  0.00000000E+00
  1.33830084E-01 -2.73394803E-01  1.39372003E-01  5.87200359E-02  0.00000000E+00
  0.00000000E+00  3.18311002E-01 -6.68033182E-01 -2.66247967E-02  4.10082607E-02
  3.68753303E-02  3.18311002E-01 -6.68033182E-01 -2.66247967E-02  4.10082607E-02
 -3.68753303E-02  3.20672023E-01 -6.73005024E-01  3.70978407E-02  4.87683126E-02
  0.00000000E+00 -9.59256842E-01  2.00995480E+00  9.33070485E-03 -7.63282012E-02
  0.00000000E+00  9.90825743E-02 -5.33773399E-02  4.35504397E-06  2.81492968E-04
  0.00000000E+00  2.57834220E-01 -5.58651165E-06 -2.17065250E-04  0.00000000E+00
  9.63802914E-01 -1.09451557E-06 -5.56206896E-04  0.00000000E+00  7.19620417E-02
  7.17998502E-02  7.19636698E-02  6.03646447E-05  0.00000000E+00  0.00000000E+00
  7.14476297E-01 -8.10137613E-01 -2.53272752E-02 -2.29593182E-02  4.84222104E-02
  7.14476297E-01 -8.10137613E-01 -2.53272752E-02 -2.29593182E-02 -4.84222104E-02
  7.14319045E-01 -8.09917063E-01  5.78986872E-02 -1.26592996E-02  0.00000000E+00
  7.13264744E-01 -8.08468988E-01 -7.24410551E-03  5.87849261E-02  0.00000000E+00
 -6.99932667E-02 -2.26508399E+00  1.48658796E-06  1.98400724E-04  0.00000000E+00
  6.16211261E+00 -8.96323122E-06 -1.48274331E-03  0.00000000E+00  5.87529534E-01
 -1.57080174E-06 -2.08016628E-04  0.00000000E+00 -7.70432785E-02 -7.68552353E-02
 -7.70352920E-02 -7.23967758E-05  0.00000000E+00  0.00000000E+00 -2.55791523E-02
 -1.56554659E+00 -1.63870690E-02 -1.49947481E-02  3.13646374E-02 -2.55791523E-02
 -1.56554659E+00 -1.63870690E-02 -1.49947481E-02 -3.13646374E-02 -2.55287511E-02
 -1.56548322E+00  3.75104425E-02 -8.36251760E-03  0.00000000E+00 -2.51503225E-02
 -1.56517377E+00 -4.73649325E-03  3.81266125E-02  0.00000000E+00 -1.13763760E-05
 -1.83923460E-04  1.73241392E-05  4.81832427E-06  0.00000000E+00  5.34246892E-04
 -1.95837785E-05 -5.28413477E-06  0.00000000E+00  3.96057941E-05 -1.13145752E-05
 -2.90388342E-06  0.00000000E+00  2.16210883E-01  1.21074286E-01 -3.37309314E-01
  5.81068989E-01  0.00000000E+00  0.00000000E+00 -5.90504597E-05 -1.42338290E-04
 -1.47801587E-01 -1.34385171E-01 -1.41340360E-01 -5.90504597E-05 -1.42338290E-04
 -1.47801587E-01 -1.34385171E-01  1.41340360E-01  2.16627513E-06 -7.40166838E-05
  5.27187794E-02  2.38725841E-01  0.00000000E+00 -3.24633907E-05 -1.11136151E-04
  2.42641247E-01  2.99853593E-02  0.00000000E+00  0.00000000E+00  0.00000000E+00
  0.00000000E+00  0.00000000E+00  1.41292244E-05  0.00000000E+00  0.00000000E+00
  0.00000000E+00 -1.63428391E-05  0.00000000E+00  0.00000000E+00  0.00000000E+00