fubar                                                                   
SP        RSVWN5                                                      Aug-CC-pVDZ         
Number of atoms                            I                2
Info1-9                                    I   N=           9
          12          11           0           0           0         110
           1          18         102
Full Title                                 C   N=           1
fubar       
Route                                      C   N=           5
#SVWN5/Aug-cc-pVDZ scf=tight maxdisk=1000GB Polar           
Charge                                     I                0
Multiplicity                               I                1
Number of electrons                        I                2
Number of alpha electrons                  I                1
Number of beta electrons                   I                1
Number of basis functions                  I               18
Number of independent functions            I               18
Number of point charges in /Mol/           I                0
Number of translation vectors              I                0
Atomic numbers                             I   N=           2
           1           1
Nuclear charges                            R   N=           2
  1.00000000E+00  1.00000000E+00
Current cartesian coordinates              R   N=           6
  0.00000000E+00  0.00000000E+00  7.19289718E-01  8.80875851E-17  0.00000000E+00
 -7.19289718E-01
Number of symbols in /Mol/                 I                0
Int Atom Types                             I   N=           2
           0           0
Force Field                                I                0
Atom Types                                 C   N=           2
                        
MM charges                                 R   N=           2
  0.00000000E+00  0.00000000E+00
Integer atomic weights                     I   N=           2
           1           1
Real atomic weights                        R   N=           2
  1.00782504E+00  1.00782504E+00
Atom fragment info                         I   N=           2
           0           0
Atom residue num                           I   N=           2
           0           0
Nuclear spins                              I   N=           2
           1           1
Nuclear ZEff                               R   N=           2
 -1.00000000E+00 -1.00000000E+00
Nuclear ZNuc                               R   N=           2
  1.00000000E+00  1.00000000E+00
Nuclear QMom                               R   N=           2
  0.00000000E+00  0.00000000E+00
Nuclear GFac                               R   N=           2
  2.79284600E+00  2.79284600E+00
MicOpt                                     I   N=           2
          -1          -1
Number of residues                         I                0
Number of secondary structures             I                0
SymInf integers                            I   N=          26
           2           8           1           1           1          -1
           1          -1          -1          -1           1           1
          -1          -1          -1           1           1           1
          -1           1           1           1          -1          -1
          -1          -1
RotTr to input orientation                 R   N=          12
  1.00000000E+00  0.00000000E+00  0.00000000E+00  0.00000000E+00  1.00000000E+00
  0.00000000E+00  0.00000000E+00  0.00000000E+00  1.00000000E+00  0.00000000E+00
  0.00000000E+00  0.00000000E+00
Number of contracted shells                I               10
Number of primitive shells                 I               14
Pure/Cartesian d shells                    I                0
Pure/Cartesian f shells                    I                0
Highest angular momentum                   I                1
Largest degree of contraction              I                3
Shell types                                I   N=          10
           0           0           0           1           1           0
           0           0           1           1
Number of primitives per shell             I   N=          10
           3           1           1           1           1           3
           1           1           1           1
Shell to atom map                          I   N=          10
           1           1           1           1           1           2
           2           2           2           2
Primitive exponents                        R   N=          14
  1.30100000E+01  1.96200000E+00  4.44600000E-01  1.22000000E-01  2.97400000E-02
  7.27000000E-01  1.41000000E-01  1.30100000E+01  1.96200000E+00  4.44600000E-01
  1.22000000E-01  2.97400000E-02  7.27000000E-01  1.41000000E-01
Contraction coefficients                   R   N=          14
  3.34987264E-02  2.34800801E-01  8.13682958E-01  1.00000000E+00  1.00000000E+00
  1.00000000E+00  1.00000000E+00  3.34987264E-02  2.34800801E-01  8.13682958E-01
  1.00000000E+00  1.00000000E+00  1.00000000E+00  1.00000000E+00
Coordinates of each shell                  R   N=          30
  0.00000000E+00  0.00000000E+00  7.19289718E-01  0.00000000E+00  0.00000000E+00
  7.19289718E-01  0.00000000E+00  0.00000000E+00  7.19289718E-01  0.00000000E+00
  0.00000000E+00  7.19289718E-01  0.00000000E+00  0.00000000E+00  7.19289718E-01
  8.80875851E-17  0.00000000E+00 -7.19289718E-01  8.80875851E-17  0.00000000E+00
 -7.19289718E-01  8.80875851E-17  0.00000000E+00 -7.19289718E-01  8.80875851E-17
  0.00000000E+00 -7.19289718E-01  8.80875851E-17  0.00000000E+00 -7.19289718E-01
Num ILSW                                   I              100
ILSW                                       I   N=         100
           0           0           0           0           2           0
           0           0           0           0         201134217728000
           5           0           0           0           0           0
           0           0           1           0           0           0
           1           0           0           0           0           0
           0           0      100000           0          -1           0
           0           0           0           0           0           0
           0           0           0           1           0           0
           0 -2000000000           1           0           0           0
           0           0           4          52           0           0
           0           0           0           0           0           0
           0           0           0           0           0           1
           0           0           0           0           0           0
           0           0           0           0           0           0
           0           0           0           0           0           0
           0           0           0           0           0           0
           0           0           0           0
Num RLSW                                   I               52
RLSW                                       R   N=          52
  1.00000000E+00  1.00000000E+00  1.00000000E+00  1.00000000E+00  0.00000000E+00
  0.00000000E+00  0.00000000E+00  1.00000000E+00  0.00000000E+00  0.00000000E+00
  0.00000000E+00  0.00000000E+00  1.00000000E+00  0.00000000E+00  0.00000000E+00
  0.00000000E+00  0.00000000E+00  1.00000000E+00  0.00000000E+00  0.00000000E+00
  0.00000000E+00  0.00000000E+00  1.00000000E+00  0.00000000E+00  0.00000000E+00
  0.00000000E+00  0.00000000E+00  1.00000000E+00  0.00000000E+00  0.00000000E+00
  0.00000000E+00  0.00000000E+00  1.00000000E+00  0.00000000E+00  0.00000000E+00
  0.00000000E+00  0.00000000E+00  0.00000000E+00  1.00000000E+00  1.00000000E+00
  0.00000000E+00  1.00000000E+00  0.00000000E+00  0.00000000E+00  0.00000000E+00
  0.00000000E+00  0.00000000E+00  0.00000000E+00  0.00000000E+00  0.00000000E+00
  0.00000000E+00  0.00000000E+00
MxBond                                     I                1
NBond                                      I   N=           2
           1           1
IBond                                      I   N=           2
           2           1
RBond                                      R   N=           2
  1.00000000E+00  1.00000000E+00
Virial Ratio                               R      2.071913384089272E+00
SCF Energy                                 R     -1.132647163251524E+00
Total Energy                               R     -1.132647163251524E+00
RMS Density                                R      3.594189460419065E-09
Job Status                                 I                1
Nuclear derivative order                   I                0
External E-field                           R   N=          35
  0.00000000E+00  0.00000000E+00  0.00000000E+00  0.00000000E+00  0.00000000E+00
  0.00000000E+00  0.00000000E+00  0.00000000E+00  0.00000000E+00  0.00000000E+00
  0.00000000E+00  0.00000000E+00  0.00000000E+00  0.00000000E+00  0.00000000E+00
  0.00000000E+00  0.00000000E+00  0.00000000E+00  0.00000000E+00  0.00000000E+00
  0.00000000E+00  0.00000000E+00  0.00000000E+00  0.00000000E+00  0.00000000E+00
  0.00000000E+00  0.00000000E+00  0.00000000E+00  0.00000000E+00  0.00000000E+00
  0.00000000E+00  0.00000000E+00  0.00000000E+00  0.00000000E+00  0.00000000E+00
IOpCl                                      I                0
IROHF                                      I                0
Alpha Orbital Energies                     R   N=          18
 -3.71127314E-01  9.71025618E-03  2.74198070E-02  1.18703855E-01  1.48906088E-01
  1.48906088E-01  3.02839691E-01  3.43598330E-01  3.43598330E-01  4.38641465E-01
  5.35012739E-01  9.60440301E-01  1.30763672E+00  1.30763672E+00  1.73623574E+00
  1.90868201E+00  1.90868201E+00  3.21058344E+00
Alpha MO coefficients                      R   N=         324
  4.01561870E-01  1.74164666E-01  1.38661301E-02  0.00000000E+00  0.00000000E+00
 -1.68815408E-02  0.00000000E+00  0.00000000E+00  6.84474033E-03  4.01561870E-01
  1.74164666E-01  1.38661301E-02  0.00000000E+00  0.00000000E+00  1.68815408E-02
  0.00000000E+00  0.00000000E+00 -6.84474033E-03  1.53965588E-01  3.01608824E-02
  2.94381775E+00  0.00000000E+00  0.00000000E+00  2.16049066E-02  0.00000000E+00
  0.00000000E+00  1.68128208E-01 -1.53965588E-01 -3.01608824E-02 -2.94381775E+00
  0.00000000E+00  0.00000000E+00  2.16049066E-02  0.00000000E+00  0.00000000E+00
  1.68128208E-01 -1.25620910E-01 -2.61017790E-01  6.49216590E-01  0.00000000E+00
  0.00000000E+00  1.36241996E-02  0.00000000E+00  0.00000000E+00 -1.56338456E-02
 -1.25620910E-01 -2.61017790E-01  6.49216590E-01  0.00000000E+00  0.00000000E+00
 -1.36241996E-02  0.00000000E+00  0.00000000E+00  1.56338456E-02  2.24943622E-01
  6.38015273E+00 -4.25323018E+00  0.00000000E+00  0.00000000E+00  4.69918330E-02
  0.00000000E+00  0.00000000E+00 -1.19011538E+00 -2.24943622E-01 -6.38015273E+00
  4.25323018E+00  0.00000000E+00  0.00000000E+00  4.69918330E-02  0.00000000E+00
  0.00000000E+00 -1.19011538E+00  0.00000000E+00  0.00000000E+00  0.00000000E+00
  0.00000000E+00  1.54567436E-02  0.00000000E+00  0.00000000E+00  5.10838670E-01
  0.00000000E+00  0.00000000E+00  0.00000000E+00  0.00000000E+00  0.00000000E+00
  1.54567436E-02  0.00000000E+00  0.00000000E+00  5.10838670E-01  0.00000000E+00
  0.00000000E+00  0.00000000E+00  0.00000000E+00  1.54567436E-02  0.00000000E+00
  0.00000000E+00  5.10838670E-01  0.00000000E+00  0.00000000E+00  0.00000000E+00
  0.00000000E+00  0.00000000E+00  1.54567436E-02  0.00000000E+00  0.00000000E+00
  5.10838670E-01  0.00000000E+00  0.00000000E+00 -2.08593370E-01  8.65716294E-01
 -4.32000337E-01  0.00000000E+00  0.00000000E+00  6.20383690E-03  0.00000000E+00
  0.00000000E+00  1.21290677E+00 -2.08593370E-01  8.65716294E-01 -4.32000337E-01
  0.00000000E+00  0.00000000E+00 -6.20383690E-03  0.00000000E+00  0.00000000E+00
 -1.21290677E+00  0.00000000E+00  0.00000000E+00  0.00000000E+00 -1.75997483E-02
  0.00000000E+00  0.00000000E+00  1.93200263E+00  0.00000000E+00  0.00000000E+00
  0.00000000E+00  0.00000000E+00  0.00000000E+00  1.75997483E-02  0.00000000E+00
  0.00000000E+00 -1.93200263E+00  0.00000000E+00  0.00000000E+00  0.00000000E+00
  0.00000000E+00  0.00000000E+00  0.00000000E+00 -1.75997483E-02  0.00000000E+00
  0.00000000E+00  1.93200263E+00  0.00000000E+00  0.00000000E+00  0.00000000E+00
  0.00000000E+00  0.00000000E+00  1.75997483E-02  0.00000000E+00  0.00000000E+00
 -1.93200263E+00  0.00000000E+00 -3.08104411E-01  2.95517234E+01 -2.78090853E+00
  0.00000000E+00  0.00000000E+00  2.24154267E-02  0.00000000E+00  0.00000000E+00
 -7.68682828E+00  3.08104411E-01 -2.95517234E+01  2.78090853E+00  0.00000000E+00
  0.00000000E+00  2.24154267E-02  0.00000000E+00  0.00000000E+00 -7.68682828E+00
  8.15211654E-01 -6.61949640E-01  2.26701703E-01  0.00000000E+00  0.00000000E+00
 -1.67517702E-02  0.00000000E+00  0.00000000E+00  9.23911776E-01  8.15211654E-01
 -6.61949640E-01  2.26701703E-01  0.00000000E+00  0.00000000E+00  1.67517702E-02
  0.00000000E+00  0.00000000E+00 -9.23911776E-01  9.44582456E-01  2.31812509E+01
 -5.24992608E-01  0.00000000E+00  0.00000000E+00  4.31447005E-01  0.00000000E+00
  0.00000000E+00 -6.80551553E+00 -9.44582456E-01 -2.31812509E+01  5.24992608E-01
  0.00000000E+00  0.00000000E+00  4.31447005E-01  0.00000000E+00  0.00000000E+00
 -6.80551553E+00  0.00000000E+00  0.00000000E+00  0.00000000E+00  0.00000000E+00
  6.74442813E-01  0.00000000E+00  0.00000000E+00 -3.13411833E-01  0.00000000E+00
  0.00000000E+00  0.00000000E+00  0.00000000E+00  0.00000000E+00  6.74442813E-01
  0.00000000E+00  0.00000000E+00 -3.13411833E-01  0.00000000E+00  0.00000000E+00
  0.00000000E+00  0.00000000E+00  6.74442813E-01  0.00000000E+00  0.00000000E+00
 -3.13411833E-01  0.00000000E+00  0.00000000E+00  0.00000000E+00  0.00000000E+00
  0.00000000E+00  6.74442813E-01  0.00000000E+00  0.00000000E+00 -3.13411833E-01
  0.00000000E+00  0.00000000E+00  3.98389782E-01 -4.07643896E-01  1.43184646E-01
  0.00000000E+00  0.00000000E+00  7.52051906E-01  0.00000000E+00  0.00000000E+00
 -4.68855666E-01  3.98389782E-01 -4.07643896E-01  1.43184646E-01  0.00000000E+00
  0.00000000E+00 -7.52051906E-01  0.00000000E+00  0.00000000E+00  4.68855666E-01
  0.00000000E+00  0.00000000E+00  0.00000000E+00  1.05040511E+00  0.00000000E+00
  0.00000000E+00 -7.52046407E-01  0.00000000E+00  0.00000000E+00  0.00000000E+00
  0.00000000E+00  0.00000000E+00 -1.05040511E+00  0.00000000E+00  0.00000000E+00
  7.52046407E-01  0.00000000E+00  0.00000000E+00  0.00000000E+00  0.00000000E+00
  0.00000000E+00  0.00000000E+00  1.05040511E+00  0.00000000E+00  0.00000000E+00
 -7.52046407E-01  0.00000000E+00  0.00000000E+00  0.00000000E+00  0.00000000E+00
  0.00000000E+00 -1.05040511E+00  0.00000000E+00  0.00000000E+00  7.52046407E-01
  0.00000000E+00 -2.39517155E+00  8.03610162E+00 -4.13554057E-01  0.00000000E+00
  0.00000000E+00  2.10457198E+00  0.00000000E+00  0.00000000E+00 -2.25957593E+00
  2.39517155E+00 -8.03610162E+00  4.13554057E-01  0.00000000E+00  0.00000000E+00
  2.10457198E+00  0.00000000E+00  0.00000000E+00 -2.25957593E+00
Orthonormal basis                          R   N=         324
  1.70122555E-01  2.22347520E-01  1.89541953E-01  0.00000000E+00  0.00000000E+00
 -5.06023092E-02  0.00000000E+00  0.00000000E+00 -5.74460247E-02  1.70122555E-01
  2.22347520E-01  1.89541953E-01  0.00000000E+00  0.00000000E+00  5.06023092E-02
  0.00000000E+00  0.00000000E+00  5.74460247E-02 -2.42941458E-01  5.14502785E-02
  2.96354079E-01  0.00000000E+00  0.00000000E+00  3.70274926E-01  0.00000000E+00
  0.00000000E+00  1.31336936E-01 -2.42941458E-01  5.14502785E-02  2.96354079E-01
  0.00000000E+00  0.00000000E+00 -3.70274926E-01  0.00000000E+00  0.00000000E+00
 -1.31336936E-01  3.18328860E-01  1.97969590E-01 -4.03718056E-01  0.00000000E+00
  0.00000000E+00  5.39279281E-01  0.00000000E+00  0.00000000E+00 -9.81324548E-02
  3.18328860E-01  1.97969590E-01 -4.03718056E-01  0.00000000E+00  0.00000000E+00
 -5.39279281E-01  0.00000000E+00  0.00000000E+00  9.81324548E-02  8.92544110E-01
 -7.26731014E-01  3.31817052E-01  0.00000000E+00  0.00000000E+00  1.35043380E-01
  0.00000000E+00  0.00000000E+00  8.06231437E-01  8.92544110E-01 -7.26731014E-01
  3.31817052E-01  0.00000000E+00  0.00000000E+00 -1.35043380E-01  0.00000000E+00
  0.00000000E+00 -8.06231437E-01 -2.40619442E-01  9.12613673E-01 -5.32307739E-01
  0.00000000E+00  0.00000000E+00 -3.42999726E-01  0.00000000E+00  0.00000000E+00
  1.36553439E+00 -2.40619442E-01  9.12613673E-01 -5.32307739E-01  0.00000000E+00
  0.00000000E+00  3.42999726E-01  0.00000000E+00  0.00000000E+00 -1.36553439E+00
  0.00000000E+00  0.00000000E+00  0.00000000E+00  9.23787305E-01  0.00000000E+00
  0.00000000E+00  2.24230368E-01  0.00000000E+00  0.00000000E+00  0.00000000E+00
  0.00000000E+00  0.00000000E+00 -9.23787305E-01  0.00000000E+00  0.00000000E+00
 -2.24230368E-01  0.00000000E+00  0.00000000E+00  0.00000000E+00  0.00000000E+00
  0.00000000E+00 -5.00277589E-01  0.00000000E+00  0.00000000E+00  2.06105038E+00
  0.00000000E+00  0.00000000E+00  0.00000000E+00  0.00000000E+00  0.00000000E+00
  5.00277589E-01  0.00000000E+00  0.00000000E+00 -2.06105038E+00  0.00000000E+00
  0.00000000E+00  0.00000000E+00  0.00000000E+00  0.00000000E+00  0.00000000E+00
  9.23787305E-01  0.00000000E+00  0.00000000E+00  2.24230368E-01  0.00000000E+00
  0.00000000E+00  0.00000000E+00  0.00000000E+00  0.00000000E+00 -9.23787305E-01
  0.00000000E+00  0.00000000E+00 -2.24230368E-01  0.00000000E+00  0.00000000E+00
  0.00000000E+00  0.00000000E+00  0.00000000E+00 -5.00277589E-01  0.00000000E+00
  0.00000000E+00  2.06105038E+00  0.00000000E+00  0.00000000E+00  0.00000000E+00
  0.00000000E+00  0.00000000E+00  5.00277589E-01  0.00000000E+00  0.00000000E+00
 -2.06105038E+00  0.00000000E+00  1.60717480E-01  9.67635069E-02  2.32199655E-02
  0.00000000E+00  0.00000000E+00  2.15136412E-01  0.00000000E+00  0.00000000E+00
  3.62738212E-01 -1.60717480E-01 -9.67635069E-02 -2.32199655E-02  0.00000000E+00
  0.00000000E+00  2.15136412E-01  0.00000000E+00  0.00000000E+00  3.62738212E-01
  4.58874259E-01 -1.58159670E-01 -8.61570932E-02  0.00000000E+00  0.00000000E+00
  6.16258807E-01  0.00000000E+00  0.00000000E+00 -5.21103561E-01 -4.58874259E-01
  1.58159670E-01  8.61570932E-02  0.00000000E+00  0.00000000E+00  6.16258807E-01
  0.00000000E+00  0.00000000E+00 -5.21103561E-01  2.55745095E+00  4.28110678E-02
  5.34352487E-02  0.00000000E+00  0.00000000E+00 -1.90245694E+00  0.00000000E+00
  0.00000000E+00 -1.96357181E-02 -2.55745095E+00 -4.28110678E-02 -5.34352487E-02
  0.00000000E+00  0.00000000E+00 -1.90245694E+00  0.00000000E+00  0.00000000E+00
 -1.96357181E-02  6.55932039E-02  2.56381481E-01  4.94477647E+00  0.00000000E+00
  0.00000000E+00  2.38565123E-01  0.00000000E+00  0.00000000E+00 -5.55474782E-01
 -6.55932039E-02 -2.56381481E-01 -4.94477647E+00  0.00000000E+00  0.00000000E+00
  2.38565123E-01  0.00000000E+00  0.00000000E+00 -5.55474782E-01 -1.30623949E-01
  3.89340338E+01 -3.23643237E+00  0.00000000E+00  0.00000000E+00  7.18493473E-01
  0.00000000E+00  0.00000000E+00 -1.05470674E+01  1.30623949E-01 -3.89340338E+01
  3.23643237E+00  0.00000000E+00  0.00000000E+00  7.18493473E-01  0.00000000E+00
  0.00000000E+00 -1.05470674E+01  0.00000000E+00  0.00000000E+00  0.00000000E+00
  0.00000000E+00  2.76261677E-01  0.00000000E+00  0.00000000E+00  3.48952689E-01
  0.00000000E+00  0.00000000E+00  0.00000000E+00  0.00000000E+00  0.00000000E+00
  2.76261677E-01  0.00000000E+00  0.00000000E+00  3.48952689E-01  0.00000000E+00
  0.00000000E+00  0.00000000E+00  0.00000000E+00  0.00000000E+00  6.15460400E-01
  0.00000000E+00  0.00000000E+00 -4.87252650E-01  0.00000000E+00  0.00000000E+00
  0.00000000E+00  0.00000000E+00  0.00000000E+00  6.15460400E-01  0.00000000E+00
  0.00000000E+00 -4.87252650E-01  0.00000000E+00  0.00000000E+00  0.00000000E+00
  0.00000000E+00  2.76261677E-01  0.00000000E+00  0.00000000E+00  3.48952689E-01
  0.00000000E+00  0.00000000E+00  0.00000000E+00  0.00000000E+00  0.00000000E+00
  2.76261677E-01  0.00000000E+00  0.00000000E+00  3.48952689E-01  0.00000000E+00
  0.00000000E+00  0.00000000E+00  0.00000000E+00  0.00000000E+00  6.15460400E-01
  0.00000000E+00  0.00000000E+00 -4.87252650E-01  0.00000000E+00  0.00000000E+00
  0.00000000E+00  0.00000000E+00  0.00000000E+00  6.15460400E-01  0.00000000E+00
  0.00000000E+00 -4.87252650E-01  0.00000000E+00  0.00000000E+00
Total SCF Density                          R   N=         171
  3.22503871E-01  1.39875778E-01  6.06666620E-02  1.11362183E-02  4.82997986E-03
  3.84539130E-04 -2.07546498E-19 -9.00166806E-20 -7.16668331E-21  1.06852792E-36
 -2.07546498E-19 -9.00166806E-20 -7.16668331E-21  0.00000000E+00  1.06852792E-36
 -1.35579662E-02 -5.88033583E-03 -4.68163282E-04  8.72519263E-21  8.72519263E-21
  5.69972837E-04  8.41511984E-20  3.64979010E-20  2.90578253E-21 -4.33242218E-37
  0.00000000E+00 -3.53769118E-21  1.75661127E-37  8.41511984E-20  3.64979010E-20
  2.90578253E-21  0.00000000E+00 -4.33242218E-37 -3.53769118E-21  0.00000000E+00
  1.75661127E-37  5.49717345E-03  2.38422383E-03  1.89820120E-04 -3.53769118E-21
 -3.53769118E-21 -2.31099526E-04  1.43438196E-21  1.43438196E-21  9.37009403E-05
  3.22503871E-01  1.39875778E-01  1.11362183E-02 -2.07546498E-19 -2.07546498E-19
 -1.35579662E-02  8.41511984E-20  8.41511984E-20  5.49717345E-03  3.22503871E-01
  1.39875778E-01  6.06666620E-02  4.82997986E-03 -9.00166806E-20 -9.00166806E-20
 -5.88033583E-03  3.64979010E-20  3.64979010E-20  2.38422383E-03  1.39875778E-01
  6.06666620E-02  1.11362183E-02  4.82997986E-03  3.84539130E-04 -7.16668331E-21
 -7.16668331E-21 -4.68163282E-04  2.90578253E-21  2.90578253E-21  1.89820120E-04
  1.11362183E-02  4.82997986E-03  3.84539130E-04  2.07546498E-19  9.00166806E-20
  7.16668331E-21 -1.06852792E-36  0.00000000E+00 -8.72519263E-21  4.33242218E-37
  0.00000000E+00  3.53769118E-21  2.07546498E-19  9.00166806E-20  7.16668331E-21
  1.06852792E-36  2.07546498E-19  9.00166806E-20  7.16668331E-21  0.00000000E+00
 -1.06852792E-36 -8.72519263E-21  0.00000000E+00  4.33242218E-37  3.53769118E-21
  2.07546498E-19  9.00166806E-20  7.16668331E-21  0.00000000E+00  1.06852792E-36
  1.35579662E-02  5.88033583E-03  4.68163282E-04 -8.72519263E-21 -8.72519263E-21
 -5.69972837E-04  3.53769118E-21  3.53769118E-21  2.31099526E-04  1.35579662E-02
  5.88033583E-03  4.68163282E-04  8.72519263E-21  8.72519263E-21  5.69972837E-04
 -8.41511984E-20 -3.64979010E-20 -2.90578253E-21  4.33242218E-37  0.00000000E+00
  3.53769118E-21 -1.75661127E-37  0.00000000E+00 -1.43438196E-21 -8.41511984E-20
 -3.64979010E-20 -2.90578253E-21 -4.33242218E-37  0.00000000E+00 -3.53769118E-21
  1.75661127E-37 -8.41511984E-20 -3.64979010E-20 -2.90578253E-21  0.00000000E+00
  4.33242218E-37  3.53769118E-21  0.00000000E+00 -1.75661127E-37 -1.43438196E-21
 -8.41511984E-20 -3.64979010E-20 -2.90578253E-21  0.00000000E+00 -4.33242218E-37
 -3.53769118E-21  0.00000000E+00  1.75661127E-37 -5.49717345E-03 -2.38422383E-03
 -1.89820120E-04  3.53769118E-21  3.53769118E-21  2.31099526E-04 -1.43438196E-21
 -1.43438196E-21 -9.37009403E-05 -5.49717345E-03 -2.38422383E-03 -1.89820120E-04
 -3.53769118E-21 -3.53769118E-21 -2.31099526E-04  1.43438196E-21  1.43438196E-21
  9.37009403E-05
Mulliken Charges                           R   N=           2
 -2.60902411E-15 -2.55351296E-15
ONIOM Charges                              I   N=          16
           0           0           0           0           0           0
           0           0           0           0           0           0
           0           0           0           0
ONIOM Multiplicities                       I   N=          16
           1           0           0           0           0           0
           0           0           0           0           0           0
           0           0           0           0
Atom Layers                                I   N=           2
           1           1
Atom Modifiers                             I   N=           2
           0           0
Int Atom Modified Types                    I   N=           2
           0           0
Force Field                                I                0
Atom Modified Types                        C   N=           2
                        
Link Atoms                                 I   N=           2
           0           0
Atom Modified MM Charges                   R   N=           2
  0.00000000E+00  0.00000000E+00
Link Distances                             R   N=           8
  0.00000000E+00  0.00000000E+00  0.00000000E+00  0.00000000E+00  0.00000000E+00
  0.00000000E+00  0.00000000E+00  0.00000000E+00
Cartesian Gradient                         R   N=           6
  0.00000000E+00  0.00000000E+00  0.00000000E+00  0.00000000E+00  0.00000000E+00
  0.00000000E+00
Nonadiabatic coupling                      R   N=           6
  0.00000000E+00  0.00000000E+00  0.00000000E+00  0.00000000E+00  0.00000000E+00
  0.00000000E+00
Dipole Moment                              R   N=           3
 -2.34193081E-31 -4.21297175E-34  0.00000000E+00
Polarizability                             R   N=           6
  4.97845312E+00  1.80078106E-18  4.97845312E+00 -3.55501460E-16 -1.40874959E-33
  7.60982580E+00
HyperPolarizability                        R   N=          10
 -5.14275407E-16 -1.69514942E-16 -1.71425136E-16 -4.06038260E-16  7.46697809E-15
 -9.66460138E-17  7.51883644E-15  1.95803775E-15  2.12987572E-15 -9.41885742E-11
Quadrupole Moment                          R   N=           6
 -1.31177484E-01 -1.31177484E-01  2.62354968E-01 -2.61180303E-35 -2.19945840E-17
  4.20465760E-19
QEq coupling tensors                       R   N=          12
  1.72327698E-01  0.00000000E+00  1.72327698E-01  4.21039169E-17  0.00000000E+00
 -3.44655396E-01  1.72327698E-01  0.00000000E+00  1.72327698E-01  1.61570080E-17
  0.00000000E+00 -3.44655396E-01
ClPar MaxAn                                I              200
ClPar NIntPar                              I                4
ClPar NRealPar                             I               16
ClPar NBits                                I               30
ClPar LenBitVec                            I                1
ClPar Read BitMap                          I   N=         200
           0           0           0           0           0           0
           0           0           0           0           0           0
           0           0           0           0           0           0
           0           0           0           0           0           0
           0           0           0           0           0           0
           0           0           0           0           0           0
           0           0           0           0           0           0
           0           0           0           0           0           0
           0           0           0           0           0           0
           0           0           0           0           0           0
           0           0           0           0           0           0
           0           0           0           0           0           0
           0           0           0           0           0           0
           0           0           0           0           0           0
           0           0           0           0           0           0
           0           0           0           0           0           0
           0           0           0           0           0           0
           0           0           0           0           0           0
           0           0           0           0           0           0
           0           0           0           0           0           0
           0           0           0           0           0           0
           0           0           0           0           0           0
           0           0           0           0           0           0
           0           0           0           0           0           0
           0           0           0           0           0           0
           0           0           0           0           0           0
           0           0           0           0           0           0
           0           0           0           0           0           0
           0           0           0           0           0           0
           0           0           0           0           0           0
           0           0           0           0           0           0
           0           0           0           0           0           0
           0           0           0           0           0           0
           0           0
ClPar Default BitMap                       I   N=         200
        2016        2016        2016        2016        2016        2016
        2016        2016        2016        2016        2016        2016
        2016        2016        2016        2016        2016        2016
        2016        2016        2016        2016        2016        2016
        2016        2016        2016        2016        2016        2016
        2016        2016        2016        2016        2016        2016
        2016        2016        2016        2016        2016        2016
        2016        2016        2016        2016        2016        2016
        2016        2016        2016        2016        2016        2016
        2016        2016        2016        2016        2016        2016
        2016        2016        2016        2016        2016        2016
        2016        2016        2016        2016        2016        2016
        2016        2016        2016        2016        2016        2016
        2016        2016        2016        2016        2016        2016
        2016        2016         480         480         480         480
         480         480         480         480         480         480
         480         480         480         480         480         480