fubar                                                                   
SP        RSVWN                                                       Aug-CC-pV5Z         
Number of atoms                            I                1
Info1-9                                    I   N=           9
          12          10           0           0           0         110
           1          18         502
Full Title                                 C   N=           1
fubar       
Route                                      C   N=           5
#LSDA/aug-cc-pV5Z scf=tight maxdisk=70GB Symmetry=none Polar
Charge                                     I                0
Multiplicity                               I                1
Number of electrons                        I                2
Number of alpha electrons                  I                1
Number of beta electrons                   I                1
Number of basis functions                  I               80
Number of independent functions            I               80
Number of point charges in /Mol/           I                0
Number of translation vectors              I                0
Atomic numbers                             I   N=           1
           2
Nuclear charges                            R   N=           1
  2.00000000E+00
Current cartesian coordinates              R   N=           3
  0.00000000E+00  0.00000000E+00  0.00000000E+00
Number of symbols in /Mol/                 I                0
Int Atom Types                             I   N=           1
           0
Force Field                                I                0
Atom Types                                 C   N=           1
            
MM charges                                 R   N=           1
  0.00000000E+00
Integer atomic weights                     I   N=           1
           4
Real atomic weights                        R   N=           1
  4.00260325E+00
Atom fragment info                         I   N=           1
           0
Atom residue num                           I   N=           1
           0
Nuclear spins                              I   N=           1
           0
Nuclear ZEff                               R   N=           1
 -2.00000000E+00
Nuclear ZNuc                               R   N=           1
  2.00000000E+00
Nuclear QMom                               R   N=           1
  0.00000000E+00
Nuclear GFac                               R   N=           1
  0.00000000E+00
MicOpt                                     I   N=           1
          -1
Number of residues                         I                0
Number of secondary structures             I                0
Number of contracted shells                I               20
Number of primitive shells                 I               23
Pure/Cartesian d shells                    I                0
Pure/Cartesian f shells                    I                0
Highest angular momentum                   I                4
Largest degree of contraction              I                4
Shell types                                I   N=          20
           0           0           0           0           0           0
           1           1           1           1           1          -2
          -2          -2          -2          -3          -3          -3
          -4          -4
Number of primitives per shell             I   N=          20
           4           1           1           1           1           1
           1           1           1           1           1           1
           1           1           1           1           1           1
           1           1
Shell to atom map                          I   N=          20
           1           1           1           1           1           1
           1           1           1           1           1           1
           1           1           1           1           1           1
           1           1
Primitive exponents                        R   N=          23
  1.14500000E+03  1.71700000E+02  3.90700000E+01  1.10400000E+01  3.56600000E+00
  1.24050000E+00  4.47300000E-01  1.64000000E-01  4.66400000E-02  1.01530000E+01
  3.62700000E+00  1.29600000E+00  4.63000000E-01  1.40000000E-01  7.66600000E+00
  2.64700000E+00  9.14000000E-01  2.89200000E-01  5.41100000E+00  1.70700000E+00
  5.34500000E-01  3.43000000E+00  7.89900000E-01
Contraction coefficients                   R   N=          23
  5.26133816E-03  4.06104960E-02  2.08856073E-01  8.14349628E-01  1.00000000E+00
  1.00000000E+00  1.00000000E+00  1.00000000E+00  1.00000000E+00  1.00000000E+00
  1.00000000E+00  1.00000000E+00  1.00000000E+00  1.00000000E+00  1.00000000E+00
  1.00000000E+00  1.00000000E+00  1.00000000E+00  1.00000000E+00  1.00000000E+00
  1.00000000E+00  1.00000000E+00  1.00000000E+00
Coordinates of each shell                  R   N=          60
  0.00000000E+00  0.00000000E+00  0.00000000E+00  0.00000000E+00  0.00000000E+00
  0.00000000E+00  0.00000000E+00  0.00000000E+00  0.00000000E+00  0.00000000E+00
  0.00000000E+00  0.00000000E+00  0.00000000E+00  0.00000000E+00  0.00000000E+00
  0.00000000E+00  0.00000000E+00  0.00000000E+00  0.00000000E+00  0.00000000E+00
  0.00000000E+00  0.00000000E+00  0.00000000E+00  0.00000000E+00  0.00000000E+00
  0.00000000E+00  0.00000000E+00  0.00000000E+00  0.00000000E+00  0.00000000E+00
  0.00000000E+00  0.00000000E+00  0.00000000E+00  0.00000000E+00  0.00000000E+00
  0.00000000E+00  0.00000000E+00  0.00000000E+00  0.00000000E+00  0.00000000E+00
  0.00000000E+00  0.00000000E+00  0.00000000E+00  0.00000000E+00  0.00000000E+00
  0.00000000E+00  0.00000000E+00  0.00000000E+00  0.00000000E+00  0.00000000E+00
  0.00000000E+00  0.00000000E+00  0.00000000E+00  0.00000000E+00  0.00000000E+00
  0.00000000E+00  0.00000000E+00  0.00000000E+00  0.00000000E+00  0.00000000E+00
Num ILSW                                   I              100
ILSW                                       I   N=         100
           0           0           0           0           2           0
           0           0           0           0         205  9395240960
           5           0           0           0           0           0
           0           0           1           0           0           0
           1           1           0           0           0           0
           0           0      100000           0          -1           0
           0           0           0           0           0           0
           0           0           0           1           0           0
           0 -2000000000           1           0           0           0
           0           0           4          52           0           0
           0           0           0           0           0           0
           0           0           0           0           0           1
           0           0           0           0           0           0
           0           0           0           0           0           0
           0           0           0           0           0           0
           0           0           0           0           0           0
           0           0           0           0
Num RLSW                                   I               52
RLSW                                       R   N=          52
  1.00000000E+00  1.00000000E+00  1.00000000E+00  1.00000000E+00  0.00000000E+00
  0.00000000E+00  0.00000000E+00  1.00000000E+00  0.00000000E+00  0.00000000E+00
  0.00000000E+00  0.00000000E+00  1.00000000E+00  0.00000000E+00  0.00000000E+00
  0.00000000E+00  0.00000000E+00  1.00000000E+00  0.00000000E+00  0.00000000E+00
  0.00000000E+00  0.00000000E+00  1.00000000E+00  0.00000000E+00  0.00000000E+00
  0.00000000E+00  0.00000000E+00  1.00000000E+00  0.00000000E+00  0.00000000E+00
  0.00000000E+00  0.00000000E+00  1.00000000E+00  0.00000000E+00  0.00000000E+00
  0.00000000E+00  0.00000000E+00  0.00000000E+00  1.00000000E+00  1.00000000E+00
  0.00000000E+00  1.00000000E+00  0.00000000E+00  0.00000000E+00  0.00000000E+00
  0.00000000E+00  0.00000000E+00  0.00000000E+00  0.00000000E+00  0.00000000E+00
  0.00000000E+00  0.00000000E+00
MxBond                                     I                1
NBond                                      I   N=           1
           0
IBond                                      I   N=           1
           0
RBond                                      R   N=           1
  0.00000000E+00
Virial Ratio                               R      2.036022384632491E+00
SCF Energy                                 R     -2.872119319257428E+00
Total Energy                               R     -2.872119319257428E+00
RMS Density                                R      4.934553146752993E-09
Job Status                                 I                1
Nuclear derivative order                   I                0
External E-field                           R   N=          35
  0.00000000E+00  0.00000000E+00  0.00000000E+00  0.00000000E+00  0.00000000E+00
  0.00000000E+00  0.00000000E+00  0.00000000E+00  0.00000000E+00  0.00000000E+00
  0.00000000E+00  0.00000000E+00  0.00000000E+00  0.00000000E+00  0.00000000E+00
  0.00000000E+00  0.00000000E+00  0.00000000E+00  0.00000000E+00  0.00000000E+00
  0.00000000E+00  0.00000000E+00  0.00000000E+00  0.00000000E+00  0.00000000E+00
  0.00000000E+00  0.00000000E+00  0.00000000E+00  0.00000000E+00  0.00000000E+00
  0.00000000E+00  0.00000000E+00  0.00000000E+00  0.00000000E+00  0.00000000E+00
IOpCl                                      I                0
IROHF                                      I                0
Alpha Orbital Energies                     R   N=          80
 -5.88801986E-01  4.23287930E-02  1.79435965E-01  1.79435965E-01  1.79435965E-01
  4.47698149E-01  7.72704364E-01  7.72704364E-01  7.72704364E-01  7.72704364E-01
  7.72704364E-01  9.81022661E-01  9.81022661E-01  9.81022661E-01  1.99879343E+00
  2.06997037E+00  2.06997037E+00  2.06997037E+00  2.06997037E+00  2.06997037E+00
  2.06997037E+00  2.06997037E+00  3.10465378E+00  3.10465378E+00  3.10465378E+00
  3.10465378E+00  3.10465378E+00  3.48721212E+00  3.48721212E+00  3.48721212E+00
  4.00945863E+00  4.00945863E+00  4.00945863E+00  4.00945863E+00  4.00945863E+00
  4.00945863E+00  4.00945863E+00  4.00945863E+00  4.00945863E+00  7.31253019E+00
  7.68941804E+00  7.68941804E+00  7.68941804E+00  7.68941804E+00  7.68941804E+00
  7.68941804E+00  7.68941804E+00  1.00511085E+01  1.00511085E+01  1.00511085E+01
  1.00511085E+01  1.00511085E+01  1.10017928E+01  1.10017928E+01  1.10017928E+01
  1.84658367E+01  1.84658367E+01  1.84658367E+01  1.84658367E+01  1.84658367E+01
  1.84658367E+01  1.84658367E+01  1.84658367E+01  1.84658367E+01  2.60146650E+01
  2.60146650E+01  2.60146650E+01  2.60146650E+01  2.60146650E+01  2.60146650E+01
  2.60146650E+01  3.15995725E+01  3.15995725E+01  3.15995725E+01  3.15995725E+01
  3.15995725E+01  3.26342114E+01  3.41888424E+01  3.41888424E+01  3.41888424E+01
Alpha MO coefficients                      R   N=        6400
  6.83784284E-02  1.61903422E-01  3.18532064E-01  4.03759895E-01  2.16491326E-01
  1.05653196E-02  6.33021013E-18  8.24915000E-18  3.23291291E-18 -1.71609521E-17
  8.91329652E-18 -2.90528456E-17  1.09412767E-17  4.75526056E-18  3.40371475E-17
 -1.16620080E-17  2.05228863E-17 -3.77373456E-17 -5.65645284E-18  1.30104627E-17
  1.22191091E-17  1.06794363E-16  1.69770427E-17 -2.33551863E-17  5.72834500E-18
 -6.90388562E-17 -1.13442158E-16 -4.88422721E-17 -1.89379567E-16  1.16664582E-16
  2.46890171E-16  1.84715095E-16  2.87600462E-17  8.82823386E-17 -2.14326881E-16
 -1.46135393E-16 -1.01245130E-16 -1.40772536E-16  4.78756246E-17  2.26212757E-16
  7.89001790E-17  3.70006889E-17  2.28656477E-18 -2.61787701E-16 -5.73652332E-17
  1.59994213E-17 -1.06927294E-17  2.01926759E-16 -3.08582978E-17  6.59534270E-18
  1.47321388E-16  1.75032673E-17 -7.24438726E-18  1.75168904E-17 -7.96160080E-17
  1.05393686E-16 -1.28408862E-16 -1.96961773E-16  9.00950219E-17 -4.55889735E-18
 -8.59757035E-17 -1.40525279E-16 -2.06201357E-12 -1.39083402E-19 -1.98206737E-18
 -1.81563847E-17 -1.89222211E-17  7.48179429E-18  2.72866959E-18 -1.74273480E-12
  3.37002898E-18 -3.57511265E-12  1.52843677E-16  1.92693238E-16  9.41074737E-17
 -2.95619590E-16 -2.24854877E-16  1.30983867E-16 -3.02145972E-12  1.08457585E-16
 -1.88695718E-02 -3.34834018E-02 -1.40645173E-01 -1.13665082E-02 -5.46039177E-01
  1.33347124E+00 -1.13625609E-17 -3.30823079E-18  4.16029647E-18  5.42955648E-17
 -2.47921003E-17  4.81954314E-17 -6.14136668E-17  1.33724946E-17 -4.74067390E-17
  4.22417866E-17 -4.00534214E-18  3.37814037E-17  4.65765516E-17  5.48991402E-17
  1.48257630E-17 -1.40993376E-17 -1.11789166E-17  1.40401995E-17  2.47168836E-17
 -8.53576309E-18  1.22709999E-16  1.91539039E-17 -4.68256147E-17 -1.23128511E-16
 -8.23203200E-18 -3.69217819E-16 -7.29477228E-17  1.38310018E-16  3.31066831E-16
 -1.06710381E-17  2.04627208E-16  8.44220924E-16 -4.58197913E-16 -2.94546001E-16
 -1.68794514E-16 -1.63411290E-18 -1.66931097E-19 -7.19120329E-17 -1.47812977E-16
  4.30210997E-17  2.05648120E-17  8.96473543E-17  1.97294479E-17  4.46489920E-17
  1.61339925E-17  7.72919881E-17 -2.12527505E-17 -7.84086385E-17 -6.63491333E-17
 -1.30293698E-16 -2.42537625E-16  1.34444118E-16 -8.29348513E-17  1.27831158E-17
  4.99191833E-16  1.76381308E-16  4.98240559E-13  1.52174723E-17  2.79389241E-17
  4.81346984E-17 -8.36480140E-20 -4.51924215E-17 -6.10926035E-18  4.21269926E-13
  2.91478635E-17 -7.26966283E-13 -1.24508729E-16 -1.79582492E-16 -1.99660182E-16
  3.19215145E-16  2.32969870E-16 -1.27856353E-16 -6.14533841E-13 -1.02699219E-16
 -1.28423669E-17  1.85206789E-17 -6.78379021E-17  1.36848420E-16 -6.64269716E-17
 -6.51509108E-17  1.98151819E-03  5.05535644E-04  3.84332087E-03 -5.52950639E-03
 -1.41071759E-03 -1.07249418E-02  3.42188760E-02  8.73010481E-03  6.63703825E-02
 -5.01115467E-02 -1.27847289E-02 -9.71955513E-02  4.78542787E-01  1.22088425E-01
  9.28173906E-01 -5.88822825E-18 -3.19950601E-17  3.74656862E-17 -3.03787215E-18
 -9.15544523E-18 -8.93517126E-17  1.43767824E-16  3.95603542E-17  9.06406594E-17
 -5.18618132E-17  3.93836780E-17 -4.99129039E-17 -3.09307820E-17 -9.60846000E-17
  1.01580938E-17 -5.38115198E-17 -1.67513442E-16 -4.65112015E-17  7.91835423E-17
  5.97684910E-17 -6.39473075E-14  2.02010483E-14  5.13697803E-15 -2.19910736E-17
 -6.36994037E-17 -2.60764050E-14  6.64747269E-15 -3.94470830E-13  1.24521301E-13
  3.17847860E-14  1.95551682E-17  3.15044262E-17 -1.60761646E-13  4.10152268E-14
 -5.23568725E-12  1.65309559E-12  4.21719809E-13  3.78197923E-17 -6.92750141E-18
 -2.13410402E-12  5.44461435E-13  3.57608507E-17  1.36811668E-17  1.86525427E-17
  6.13604000E-18  2.41822044E-17 -5.76830626E-18  2.85977879E-18  6.19338064E-18
  1.50069489E-17 -1.26915464E-16 -6.13499467E-17 -6.87452393E-17  6.13515369E-17
  9.84223473E-18  3.30995227E-17 -2.44387251E-17 -5.97504468E-17 -3.69126952E-17
 -4.87993049E-18  7.71764816E-18 -4.86181027E-18  2.67343068E-17 -6.36739165E-18
 -1.10930568E-16  1.25421796E-03  4.00055397E-03 -1.17286027E-03 -3.49994577E-03
 -1.11637071E-02  3.27291384E-03  2.16591142E-02  6.90856439E-02 -2.02541466E-02
 -3.17185086E-02 -1.01171893E-01  2.96610155E-02  3.02897526E-01  9.66146187E-01
 -2.83249390E-01 -3.34728111E-17 -9.20914092E-17 -9.19672043E-19  1.50632019E-16
 -1.02057060E-16  4.55724201E-17  2.64865420E-16  2.48004051E-17 -5.33243831E-17
  1.59109147E-16 -4.55589248E-17 -2.07044495E-16  7.52629032E-17 -7.52590693E-17
 -1.11172881E-16 -5.84186781E-17  6.60296608E-17 -5.45574306E-17 -1.42634340E-17
  1.49592897E-17  1.95195003E-14  1.27857454E-14  4.08016890E-14  2.59983113E-17
  1.10653873E-17 -1.64836523E-14  5.25904586E-14  1.20455012E-13  7.88207092E-14
  2.51378752E-13 -3.99729439E-17 -5.69370766E-17 -1.01765218E-13  3.24655451E-13
  1.59779377E-12  1.04629989E-12  3.33751490E-12  2.51525447E-18  5.60303273E-16
 -1.35085029E-12  4.30858781E-12 -4.40085397E-17  4.81381041E-17  4.74588574E-17
 -2.01847661E-17  3.35246136E-17  6.33368023E-18 -2.99246661E-17  1.05186117E-17
 -1.19566415E-17 -4.79883929E-17 -1.62421364E-17 -4.60759623E-17  1.03241712E-16
  6.49279821E-17  5.88553336E-17  3.92351244E-18 -4.94524498E-17 -1.30096439E-17
  3.48888468E-17  2.34856248E-16 -3.79877141E-16  4.97813987E-16 -5.19935362E-16
  1.70727981E-16  3.66791752E-03 -1.64106600E-03 -1.67522519E-03 -1.02354717E-02
  4.57946081E-03  4.67478342E-03  6.33413386E-02 -2.83396004E-02 -2.89294962E-02
 -9.27596933E-02  4.15016908E-02  4.23655587E-02  8.85813452E-01 -3.96322526E-01
 -4.04572077E-01 -1.69793219E-16  3.11113124E-18  1.51435332E-17  1.01651706E-18
 -2.17086317E-17 -3.64930167E-18 -2.96800196E-17 -1.55413788E-16  1.63045973E-16
  1.68491955E-16  4.92578746E-17 -1.84845217E-18  1.03270513E-16 -9.36428803E-17
 -1.04700207E-16 -1.49701377E-16 -1.02100047E-17 -2.66815139E-17  6.56168475E-17
  2.37692170E-17  2.78769862E-14  3.73860590E-14 -1.67270723E-14  8.61444500E-20
  1.13903413E-20 -4.82417058E-14 -2.15843349E-14  1.71941910E-13  2.30533769E-13
 -1.03130017E-13 -4.24255327E-18  3.94210802E-18 -2.97628290E-13 -1.33159771E-13
  2.28210692E-12  3.05988296E-12 -1.36904921E-12  2.84900753E-17 -2.83388746E-17
 -3.95028422E-12 -1.76742904E-12 -1.12384095E-18  7.33728806E-18  8.96390273E-18
 -7.46243906E-18 -2.09364877E-17 -7.18724038E-18  3.63010746E-18  2.28286757E-18
  1.20744212E-17  3.75855972E-18  3.23934597E-18 -4.71239458E-18 -9.01954628E-18
  6.84028743E-18  2.94178199E-18 -8.06403915E-18  8.50944690E-18 -1.46504688E-18
 -3.02677255E-02 -1.66171345E-01  9.81369452E-02 -1.64376971E+00  2.76044655E+00
 -1.19583883E+00  6.03051176E-18 -2.28582086E-16  2.32732693E-16 -6.29007740E-17
  2.27031936E-16 -2.98340778E-16  9.09944574E-17 -1.77506359E-16  2.96978366E-16
 -3.93065072E-16 -8.27042305E-17 -2.24283431E-16  6.73630532E-16  2.92149393E-17
  6.35324768E-17 -1.86098018E-17 -8.22739312E-18  7.77999105E-17 -5.48574730E-17
 -4.01337256E-18  1.41252552E-16 -2.75821938E-17 -5.88245441E-17  1.58836923E-16
  3.33212821E-17 -1.92778602E-16  8.58375201E-17 -2.75461637E-17 -3.38576699E-16
 -1.31383695E-16  8.08471817E-16 -5.72454134E-16  4.19325143E-16  1.15280282E-15
  8.19907828E-16  6.58145384E-17  1.12117578E-17  7.36360817E-17 -1.24915256E-16
  6.57931932E-17  6.82367018E-17 -2.54804209E-16 -3.06015085E-17  6.08765314E-18
 -3.12983791E-17  5.58243233E-17 -5.44952976E-16 -1.21464367E-17  1.26892169E-16
  6.57619429E-20 -2.84530137E-17  1.88201388E-18  1.81716902E-17  2.11656836E-16
 -9.81605560E-17 -4.82925163E-17  9.81506642E-13  1.07220104E-16 -2.05293272E-17
 -1.96165273E-17 -2.55669794E-17 -2.26622927E-18 -4.37841897E-17  8.29566822E-13
 -1.08903683E-16 -3.25593567E-12 -5.74331313E-17 -3.29965593E-17 -1.00523875E-17
 -2.03647819E-17 -4.18012611E-19 -1.70959393E-19 -2.75160547E-12  7.87164578E-18
  3.03663181E-17  4.63358998E-16 -1.72943621E-16 -2.89379179E-15  5.36643599E-15
 -4.21359505E-15  2.08938940E-17  2.18673350E-17 -5.68355426E-17 -1.02350060E-16
  2.11094231E-17  6.08132153E-17  2.07246329E-16  6.44785539E-17 -1.63829389E-16
 -1.57043557E-16 -1.50407317E-16  1.72634360E-15  3.06116612E-16  1.87893698E-16
 -4.83651697E-16 -5.13077491E-06 -7.52042077E-03  3.75771889E-03  2.25954726E-07
  1.31522556E-03  2.80760747E-05  4.11524378E-02 -2.05625852E-02 -1.23644516E-06
 -7.19703589E-03 -1.00933435E-04 -1.47942935E-01  7.39224545E-02  4.44501796E-06
  2.58733302E-02  6.52966154E-04  9.57083542E-01 -4.78224692E-01 -2.87560439E-05
 -1.67381690E-01  6.07308966E-17 -8.84497074E-19  9.13122359E-17 -3.76856132E-17
 -6.51970396E-17  7.68639989E-18 -1.17953771E-16  1.08972805E-18 -2.94778532E-17
 -2.95470707E-17  6.37770468E-18  2.35330465E-17 -1.42742926E-16  4.12804958E-17
 -1.93947339E-16 -1.58023241E-18  2.30054142E-16 -1.56860054E-16 -9.84841987E-18
  1.19754858E-15  1.56348320E-16  2.75246837E-17  9.15300844E-15 -4.58730551E-15
 -1.06450837E-16  4.44016794E-15  2.43041775E-14  1.21336608E-14 -2.50912513E-16
 -1.67685872E-17 -2.84842409E-15  2.14224433E-13 -1.07128609E-13 -1.52033275E-16
  1.06013881E-13  5.66820790E-13  2.83140402E-13  3.29306002E-15 -1.77040054E-17
  2.42124469E-17  1.49196458E-16 -1.23686231E-16  1.57076159E-15 -2.74660715E-15
  1.42189474E-15  5.18483676E-18  1.58652963E-17 -1.84163793E-17 -2.98624015E-17
 -5.11190959E-17  6.55909136E-17 -7.94132842E-18  1.03759918E-16 -2.12558009E-16
 -2.39996835E-16 -3.30557350E-16  4.94700895E-16  5.60741936E-17  1.72179776E-16
 -5.98750535E-16 -3.90761246E-07  2.81756200E-04  3.30637099E-03 -5.50477937E-06
 -7.83552923E-03  2.13828167E-06 -1.54179598E-03 -1.80927678E-02  3.01226617E-05
  4.28767405E-02 -7.68711850E-06  5.54275358E-03  6.50434655E-02 -1.08290911E-04
 -1.54141800E-01  4.97300841E-05 -3.58575976E-02 -4.20784070E-01  7.00563692E-04
  9.97185703E-01  2.13761071E-17 -2.89420540E-17  3.72311781E-17 -4.28227781E-17
 -1.10306995E-17  5.16069916E-19  4.04405665E-17  1.22540773E-16  6.01279105E-17
  6.93878814E-17  7.05479757E-17  3.91458345E-18  9.16638223E-19  1.33441212E-16
  3.92310409E-17 -3.78894438E-16 -4.25435833E-16 -1.76088048E-16  1.39823089E-16
  2.76873408E-16 -3.41890462E-16 -1.55793126E-17 -3.17719184E-16 -3.96653712E-15
 -5.34558583E-17 -2.70168523E-14 -8.60472524E-16  1.07379441E-14  5.23918806E-17
 -4.86227652E-17 -4.66885367E-16 -7.89600541E-15 -9.41554411E-14  4.75619335E-15
 -6.30930595E-13 -2.12161884E-14  2.49008153E-13  6.62785348E-16  9.04601636E-17
  1.72204773E-17  1.00283416E-16 -6.55996200E-17  9.64429264E-16 -1.70527008E-15
  8.78638708E-16 -3.02087114E-18  1.00156109E-17 -1.89463064E-17  1.73572508E-17
 -5.71902107E-17  8.92240441E-17 -4.01961800E-17  1.24387232E-16 -2.45329158E-16
  6.87412364E-16  2.66796730E-17  1.71986961E-15 -1.71458075E-16  8.47918691E-17
 -6.32551602E-16  2.96469865E-06 -3.97125918E-03 -6.88145751E-03 -2.39558335E-07
 -3.04658148E-03 -1.62231052E-05  2.17310974E-02  3.76559718E-02  1.31088536E-06
  1.66711756E-02  5.83220319E-05 -7.81232535E-02 -1.35373146E-01 -4.71263036E-06
 -5.99328441E-02 -3.77301268E-04  5.05400817E-01  8.75766122E-01  3.04873021E-05
  3.87722055E-01  1.64275845E-16 -4.92313097E-17  2.05296959E-17 -6.68803627E-18
 -1.66712093E-17  4.94370145E-17  3.47625686E-17 -2.73010914E-16  5.86573121E-17
  9.89786501E-17 -1.22846920E-16  6.48928310E-17 -1.27829770E-16  3.54132068E-16
 -2.06140726E-16  4.60198505E-16  6.77870668E-16  1.19149090E-15 -2.71604388E-16
  5.70663953E-16 -8.70917265E-16  2.37146019E-17  4.83584783E-15  8.40395550E-15
 -7.38623907E-17 -1.05120800E-14  1.28394793E-14 -2.22055304E-14 -3.29449707E-17
  5.55750999E-18  1.44772095E-15  1.13153357E-13  1.96065757E-13  2.32126125E-16
 -2.45499590E-13  2.99389089E-13 -5.18574720E-13 -1.71156262E-15 -1.74090034E-16
  3.42668509E-17  2.19172446E-16 -1.56523934E-16  2.36647311E-15 -4.23702978E-15
  2.33348203E-15  4.12601416E-18 -1.20346307E-16  1.42275470E-16 -7.28951491E-17
  1.19754697E-16 -2.82814315E-16  6.23755537E-17 -2.39811859E-16  2.79924863E-16
 -2.26439136E-17  1.65279734E-15 -2.04547897E-15 -1.20320336E-16 -7.53082266E-16
  1.10488759E-15  3.37894050E-04 -3.94563067E-07 -1.65277617E-06 -8.50251855E-03
  5.24490303E-06 -1.84898748E-03  2.15908558E-06  9.04414404E-06  4.65265677E-02
 -2.87005943E-05  6.64710645E-03 -7.76190853E-06 -3.25136805E-05 -1.67262922E-01
  1.03178582E-04 -4.30019601E-02  5.02139214E-05  2.10339943E-04  1.08206985E+00
 -6.67490626E-04 -1.32320662E-17  1.90876940E-17 -1.09864982E-17  1.20854556E-17
  5.75064565E-19  2.97138697E-17 -4.92996378E-18  5.25434090E-17 -9.36652500E-17
  1.84061431E-16 -1.85535943E-16 -5.35525428E-17 -8.00223892E-17 -2.28236422E-17
 -4.56182931E-17  7.81878403E-16 -3.21547107E-16 -3.73400972E-16  1.32317962E-16
  2.24481057E-16 -3.22497673E-16 -1.43469432E-15 -1.15521224E-17 -3.12126423E-17
 -5.45881212E-14 -4.28971311E-17  1.06763733E-17 -5.02018639E-17  1.59673652E-15
 -3.24758298E-17  1.83866966E-13  5.18755419E-17  6.56986247E-17  7.16898640E-12
  4.65818849E-16  6.66620111E-17 -9.62284195E-17 -2.17574796E-13 -3.72742013E-19
  1.20744467E-16 -1.36771984E-16  1.63543432E-15 -5.41133226E-16 -1.88490944E-15
  1.08762738E-15  3.05683820E-17  5.90275077E-17 -1.41022938E-17 -1.65461698E-16
 -2.67419870E-16  2.96978912E-17  4.39653459E-16  7.84498824E-16 -7.27131620E-17
 -2.05777744E-15 -2.03181001E-15  1.55895401E-16  1.79892046E-15  1.16003742E-15
 -2.40203895E-16 -8.50251827E-03  3.12478947E-06 -4.88466137E-06 -3.37894028E-04
 -1.28741619E-06  4.65265661E-02 -1.70991369E-05  2.67293187E-05  1.84898736E-03
  7.04486041E-06 -1.67262916E-01  6.14713644E-05 -9.60918494E-05 -6.64710602E-03
 -2.53262597E-05  1.08206981E+00 -3.97675166E-04  6.21644606E-04  4.30019573E-02
  1.63842541E-04  1.25021224E-16 -1.42445799E-16 -3.61932922E-16  1.59597200E-16
 -2.25829942E-17  7.00245446E-17 -1.61510005E-16 -4.69116998E-17  8.89676229E-17
 -1.54137184E-17 -3.20112271E-16  1.59220999E-18 -5.42127994E-17  2.80425035E-16
 -3.88171820E-16  8.32760994E-17  2.36163553E-16  1.66751005E-16 -3.25732296E-17
  1.51732976E-16 -6.97161392E-16  3.52009992E-14 -1.06212211E-17  1.25271647E-17
 -2.17089286E-15  4.37310425E-18 -1.93868552E-18 -1.03328382E-17 -4.16330406E-14
 -2.60525790E-18 -4.62758750E-12  1.87175302E-16 -2.30429204E-16  2.84887793E-13
 -1.07718600E-16 -2.98279949E-16 -4.90044107E-16  5.47524953E-12  2.78121661E-16
 -2.10579962E-17 -4.64229119E-17 -5.17725810E-16  6.90402469E-16  8.15066496E-17
 -4.69543283E-16 -3.82217764E-03  3.32000970E-03 -1.17572281E-02  2.87700391E-02
 -2.49901543E-02  8.84982189E-02 -7.41866467E-02  6.44398063E-02 -2.28202196E-01
  4.51820626E-01 -3.92459222E-01  1.38982504E+00 -2.67684836E-01  2.32515685E-01
 -8.23413245E-01  1.65549492E-17 -7.94390711E-17  1.09158810E-16 -3.36016754E-17
 -3.01008841E-17 -6.16704107E-17  5.89901172E-17 -6.29531638E-17  1.39750696E-16
  1.35922633E-16 -2.29091409E-16 -2.31743722E-17  2.75639001E-16 -5.60523855E-16
 -7.89104785E-17  7.80222823E-17 -1.97264760E-15 -6.27578985E-16  2.30491330E-15
 -5.49018104E-16 -7.21566868E-14  1.44002372E-14 -1.24838748E-14  1.00511207E-17
  3.38848012E-17 -1.85272166E-14 -1.61596329E-14 -2.26218152E-12  4.50416593E-13
 -3.91132004E-13  1.79688665E-16 -5.48415181E-17 -5.81587082E-13 -5.05005890E-13
 -1.32892920E-11  2.64532602E-12 -2.29818775E-12 -1.09209408E-16  1.74571834E-16
 -3.41532562E-12 -2.96685977E-12  1.31703035E-16  8.63089615E-17  7.26314385E-17
  1.59574964E-17  6.04070228E-17  2.71920479E-17 -8.63728343E-17  8.88507535E-18
  1.09505388E-16  6.42896696E-17 -2.50821946E-17 -1.22622709E-17 -4.42678640E-17
  3.87992388E-17 -2.51284840E-17  1.79398428E-18  8.59223573E-18 -6.37794783E-17
  4.92215793E-18 -1.44300201E-16  2.62341972E-16 -1.00295074E-15  1.46646708E-15
 -7.98745240E-16 -5.69004535E-03 -1.13852355E-02 -1.36517963E-03  4.28297276E-02
  8.56981812E-02  1.02758885E-02 -1.10441069E-01 -2.20981997E-01 -2.64974861E-02
  6.72621761E-01  1.34585169E+00  1.61378244E-01 -3.98500280E-01 -7.97360877E-01
 -9.56098643E-02 -1.49013553E-16 -3.68155956E-17  5.53253612E-17  3.94378845E-16
  1.96009097E-16  5.03334166E-16  2.57344636E-16 -2.70386591E-16 -6.10376096E-17
 -8.08108859E-17 -1.25107896E-15 -1.23842811E-15  1.78065418E-15 -3.84225735E-16
 -4.09676904E-16  2.55766121E-15  2.24964316E-16 -1.35314947E-15 -6.37509957E-16
  2.87626314E-16 -8.41922774E-15  2.14014023E-14  4.27297538E-14  1.48148564E-17
 -3.33271777E-17 -2.76252988E-14  5.52103778E-14 -2.62632819E-13  6.70481224E-13
  1.34177800E-12 -5.42576554E-17  2.41991170E-16 -8.65491322E-13  1.73190789E-12
 -1.54297546E-12  3.93851697E-12  7.88003864E-12  1.84504693E-17 -1.62794079E-15
 -5.08456267E-12  1.01738269E-11 -1.89912930E-17 -1.14777836E-17  3.24014432E-17
 -8.56507910E-17  1.26507821E-17  6.78905219E-17 -7.51054528E-17  1.90391632E-16
  2.11561242E-17  4.43552895E-17 -7.06809141E-17 -3.82020814E-18  1.01617786E-16
 -9.84096023E-17  1.24969732E-16 -2.13065901E-16  1.63157709E-17  3.69344860E-17
  2.04427417E-16  1.51158100E-16 -8.72035565E-16  4.18025495E-16  2.88334374E-16
 -1.76576213E-16 -1.08110250E-02  4.81849221E-03  4.87522214E-03  8.13760222E-02
 -3.62694313E-02 -3.66964450E-02 -2.09836844E-01  9.35246377E-02  9.46257387E-02
  1.27797412E+00 -5.69595233E-01 -5.76301294E-01 -7.57146249E-01  3.37461369E-01
  3.41434429E-01  2.55528502E-17  2.56741049E-17  4.76134617E-18 -5.03017437E-18
  1.63743506E-17 -2.95469788E-17 -7.56306807E-17 -6.62616102E-17  7.60392096E-17
  6.89186371E-17 -2.83094624E-16  1.02324271E-16 -3.03462374E-17  5.80822489E-17
 -4.08103061E-17  1.04239031E-15  4.71707287E-16 -2.59533636E-16 -1.50373190E-16
  1.68335043E-16  2.99985543E-14  4.07405960E-14 -1.80835157E-14 -4.89090030E-17
  2.98239468E-17 -5.24263922E-14 -2.35228381E-14  9.38001208E-13  1.27388496E-12
 -5.67807324E-13  2.43843459E-17 -2.55292302E-16 -1.64450932E-12 -7.32902243E-13
  5.51043507E-12  7.48304148E-12 -3.33513934E-12  7.58350631E-17 -1.09470802E-16
 -9.66059801E-12 -4.30571820E-12 -2.92735634E-17  2.79012002E-17  2.99625419E-17
 -1.38468519E-17 -7.67080315E-17 -3.18087075E-17  1.97881009E-17  4.37223185E-18
  4.64085016E-17 -8.17518891E-18  1.80394071E-18  1.39825589E-17  3.08233331E-17
  1.33052984E-17 -8.34047546E-18 -3.36286987E-17 -6.86930407E-17 -2.81426203E-18
 -1.03296304E-01  1.05683466E-01 -2.24282380E+00  3.74811266E+00 -2.28458933E+00
  5.90971663E-01 -2.36419234E-17  8.75879414E-17 -4.26203794E-17  1.62728962E-16
 -6.04362199E-17 -1.53679006E-16  3.78559047E-16  8.88870141E-17  8.14670923E-16
 -8.45573241E-16  3.90591495E-16 -1.26147783E-15  3.52222468E-16 -2.72906182E-16
  6.39570403E-16 -8.50708368E-17 -7.52227744E-17  1.16184456E-16  3.36155222E-17
 -9.91704815E-17  1.17312472E-16  4.52903709E-18 -2.56886349E-17 -2.05531586E-16
  8.34713804E-17 -2.65814840E-15 -1.19889198E-16 -1.48081785E-16  4.01832509E-16
  6.47417644E-17  2.89680485E-15  3.46249479E-16 -4.56724865E-17 -8.69692754E-17
 -8.84205672E-17 -2.27622009E-17  6.04625638E-17  2.35294776E-16 -2.39099736E-16
 -1.36812663E-17  5.15506727E-16  7.81639668E-17  1.94268897E-16 -2.66935121E-16