fubar                                                                   
SP        RPBEPBE                                                     def2QZVP            
Number of atoms                            I                3
Info1-9                                    I   N=           9
          12          12           0           0           0         110
           1          18         902
Full Title                                 C   N=           1
fubar       
Route                                      C   N=           5
#PBEPBE/Def2QZVP scf=tight maxdisk=70GB Symmetry=None       
Charge                                     I                0
Multiplicity                               I                1
Number of electrons                        I               10
Number of alpha electrons                  I                5
Number of beta electrons                   I                5
Number of basis functions                  I              117
Number of independent functions            I              117
Number of point charges in /Mol/           I                0
Number of translation vectors              I                0
Atomic numbers                             I   N=           3
           8           1           1
Nuclear charges                            R   N=           3
  8.00000000E+00  1.00000000E+00  1.00000000E+00
Current cartesian coordinates              R   N=           9
  0.00000000E+00  0.00000000E+00  2.24056888E-01  0.00000000E+00  1.45747471E+00
 -8.96227553E-01  0.00000000E+00 -1.45747471E+00 -8.96227553E-01
Number of symbols in /Mol/                 I                0
Int Atom Types                             I   N=           3
           0           0           0
Force Field                                I                0
Atom Types                                 C   N=           3
                                    
MM charges                                 R   N=           3
  0.00000000E+00  0.00000000E+00  0.00000000E+00
Integer atomic weights                     I   N=           3
          16           1           1
Real atomic weights                        R   N=           3
  1.59949146E+01  1.00782504E+00  1.00782504E+00
Atom fragment info                         I   N=           3
           0           0           0
Atom residue num                           I   N=           3
           0           0           0
Nuclear spins                              I   N=           3
           0           1           1
Nuclear ZEff                               R   N=           3
 -5.60000000E+00 -1.00000000E+00 -1.00000000E+00
Nuclear ZNuc                               R   N=           3
  8.00000000E+00  1.00000000E+00  1.00000000E+00
Nuclear QMom                               R   N=           3
  0.00000000E+00  0.00000000E+00  0.00000000E+00
Nuclear GFac                               R   N=           3
  0.00000000E+00  2.79284600E+00  2.79284600E+00
MicOpt                                     I   N=           3
          -1          -1          -1
Number of residues                         I                0
Number of secondary structures             I                0
Number of contracted shells                I               37
Number of primitive shells                 I               55
Pure/Cartesian d shells                    I                0
Pure/Cartesian f shells                    I                0
Highest angular momentum                   I                4
Largest degree of contraction              I                8
Shell types                                I   N=          37
           0           0           0           0           0           0
           0           1           1           1           1          -2
          -2          -2          -3          -3          -4           0
           0           0           0           1           1           1
          -2          -2          -3           0           0           0
           0           1           1           1          -2          -2
          -3
Number of primitives per shell             I   N=          37
           8           2           1           1           1           1
           1           5           1           1           1           1
           1           1           1           1           1           4
           1           1           1           1           1           1
           1           1           1           4           1           1
           1           1           1           1           1           1
           1
Shell to atom map                          I   N=          37
           1           1           1           1           1           1
           1           1           1           1           1           1
           1           1           1           1           1           2
           2           2           2           2           2           2
           2           2           2           3           3           3
           3           3           3           3           3           3
           3
Primitive exponents                        R   N=          55
  1.16506469E+05  1.75043497E+04  3.99345132E+03  1.13300632E+03  3.69995696E+02
  1.33620743E+02  5.20356436E+01  2.14619393E+01  8.98350513E+01  2.64280108E+01
  9.28228246E+00  4.09477285E+00  1.32553491E+00  5.18772308E-01  1.97726765E-01
  1.91152558E+02  4.52333567E+01  1.43534659E+01  5.24223718E+00  2.07924186E+00
  8.42823714E-01  3.36176949E-01  1.28639980E-01  3.77500000E+00  1.30000000E+00
  4.44000000E-01  2.66600000E+00  8.59000000E-01  1.84600000E+00  1.90691690E+02
  2.86055320E+01  6.50959430E+00  1.84124550E+00  5.98537250E-01  2.13976240E-01
  8.03162860E-02  2.29200000E+00  8.38000000E-01  2.92000000E-01  2.06200000E+00
  6.62000000E-01  1.39700000E+00  1.90691690E+02  2.86055320E+01  6.50959430E+00
  1.84124550E+00  5.98537250E-01  2.13976240E-01  8.03162860E-02  2.29200000E+00
  8.38000000E-01  2.92000000E-01  2.06200000E+00  6.62000000E-01  1.39700000E+00
Contraction coefficients                   R   N=          55
  7.19875758E-05  5.57148772E-04  2.91300317E-03  1.21720511E-02  4.30037618E-02
  1.29647624E-01  3.19696086E-01  5.89314588E-01  9.48480528E-02  9.25363788E-01
  1.00000000E+00  1.00000000E+00  1.00000000E+00  1.00000000E+00  1.00000000E+00
  2.53595741E-03  2.02338243E-02  9.45180200E-02  3.09154328E-01  6.84689495E-01
  1.00000000E+00  1.00000000E+00  1.00000000E+00  1.00000000E+00  1.00000000E+00
  1.00000000E+00  1.00000000E+00  1.00000000E+00  1.00000000E+00  5.34263696E-03
  4.12523382E-02  2.10993526E-01  8.12128546E-01  1.00000000E+00  1.00000000E+00
  1.00000000E+00  1.00000000E+00  1.00000000E+00  1.00000000E+00  1.00000000E+00
  1.00000000E+00  1.00000000E+00  5.34263696E-03  4.12523382E-02  2.10993526E-01
  8.12128546E-01  1.00000000E+00  1.00000000E+00  1.00000000E+00  1.00000000E+00
  1.00000000E+00  1.00000000E+00  1.00000000E+00  1.00000000E+00  1.00000000E+00
Coordinates of each shell                  R   N=         111
  0.00000000E+00  0.00000000E+00  2.24056888E-01  0.00000000E+00  0.00000000E+00
  2.24056888E-01  0.00000000E+00  0.00000000E+00  2.24056888E-01  0.00000000E+00
  0.00000000E+00  2.24056888E-01  0.00000000E+00  0.00000000E+00  2.24056888E-01
  0.00000000E+00  0.00000000E+00  2.24056888E-01  0.00000000E+00  0.00000000E+00
  2.24056888E-01  0.00000000E+00  0.00000000E+00  2.24056888E-01  0.00000000E+00
  0.00000000E+00  2.24056888E-01  0.00000000E+00  0.00000000E+00  2.24056888E-01
  0.00000000E+00  0.00000000E+00  2.24056888E-01  0.00000000E+00  0.00000000E+00
  2.24056888E-01  0.00000000E+00  0.00000000E+00  2.24056888E-01  0.00000000E+00
  0.00000000E+00  2.24056888E-01  0.00000000E+00  0.00000000E+00  2.24056888E-01
  0.00000000E+00  0.00000000E+00  2.24056888E-01  0.00000000E+00  0.00000000E+00
  2.24056888E-01  0.00000000E+00  1.45747471E+00 -8.96227553E-01  0.00000000E+00
  1.45747471E+00 -8.96227553E-01  0.00000000E+00  1.45747471E+00 -8.96227553E-01
  0.00000000E+00  1.45747471E+00 -8.96227553E-01  0.00000000E+00  1.45747471E+00
 -8.96227553E-01  0.00000000E+00  1.45747471E+00 -8.96227553E-01  0.00000000E+00
  1.45747471E+00 -8.96227553E-01  0.00000000E+00  1.45747471E+00 -8.96227553E-01
  0.00000000E+00  1.45747471E+00 -8.96227553E-01  0.00000000E+00  1.45747471E+00
 -8.96227553E-01  0.00000000E+00 -1.45747471E+00 -8.96227553E-01  0.00000000E+00
 -1.45747471E+00 -8.96227553E-01  0.00000000E+00 -1.45747471E+00 -8.96227553E-01
  0.00000000E+00 -1.45747471E+00 -8.96227553E-01  0.00000000E+00 -1.45747471E+00
 -8.96227553E-01  0.00000000E+00 -1.45747471E+00 -8.96227553E-01  0.00000000E+00
 -1.45747471E+00 -8.96227553E-01  0.00000000E+00 -1.45747471E+00 -8.96227553E-01
  0.00000000E+00 -1.45747471E+00 -8.96227553E-01  0.00000000E+00 -1.45747471E+00
 -8.96227553E-01
Num ILSW                                   I              100
ILSW                                       I   N=         100
           0           0           0           0           2           0
           0           0           0           0        1009  9395240960
           5           0           0           0           0           0
           0           0           0           0           0           0
           1           1           0           0           0           0
           0           0      100000           0          -1           0
           0           0           0           0           0           0
           0           0           0           1           0           0
           0 -2000000000           1           0           0           0
           0           0           4          52           0           0
           0           0           0           0           0           0
           0           0           0           3           0           1
           0           0           0           0           0           0
           0           0           0           0           0           0
           0           0           0           0           0           0
           0           0           0           0           0           0
           0           0           0           0
Num RLSW                                   I               52
RLSW                                       R   N=          52
  1.00000000E+00  1.00000000E+00  1.00000000E+00  1.00000000E+00  0.00000000E+00
  0.00000000E+00  0.00000000E+00  1.00000000E+00  0.00000000E+00  0.00000000E+00
  0.00000000E+00  0.00000000E+00  1.00000000E+00  0.00000000E+00  0.00000000E+00
  0.00000000E+00  0.00000000E+00  1.00000000E+00  0.00000000E+00  0.00000000E+00
  0.00000000E+00  0.00000000E+00  1.00000000E+00  0.00000000E+00  0.00000000E+00
  0.00000000E+00  0.00000000E+00  1.00000000E+00  0.00000000E+00  0.00000000E+00
  0.00000000E+00  0.00000000E+00  1.00000000E+00  0.00000000E+00  0.00000000E+00
  0.00000000E+00  0.00000000E+00  0.00000000E+00  1.00000000E+00  1.00000000E+00
  0.00000000E+00  1.00000000E+00  0.00000000E+00  0.00000000E+00  0.00000000E+00
  0.00000000E+00  0.00000000E+00  0.00000000E+00  0.00000000E+00  0.00000000E+00
  0.00000000E+00  0.00000000E+00
ECP-MxAtEC                                 I           250000
ECP-MaxLECP                                I               10
ECP-MaxAtL                                 I          2250000
ECP-MxTECP                                 I         11250000
ECP-LenNCZ                                 I                0
ECP-KFirst                                 I   N=          30
           0           0           0           0           0           0
           0           0           0           0           0           0
           0           0           0           0           0           0
           0           0           0           0           0           0
           0           0           0           0           0           0
ECP-KLast                                  I   N=          30
           0           0           0           0           0           0
           0           0           0           0           0           0
           0           0           0           0           0           0
           0           0           0           0           0           0
           0           0           0           0           0           0
ECP-LMax                                   I   N=           3
           0           0           0
ECP-LPSkip                                 I   N=           3
           1           1           1
ECP-RNFroz                                 R   N=           3
  0.00000000E+00  0.00000000E+00  0.00000000E+00
ECP-NLP                                    I                0
ECP-CLP1                                   R      0.000000000000000E+00
ECP-CLP2                                   R      0.000000000000000E+00
ECP-ZLP                                    R      0.000000000000000E+00
MxBond                                     I                2
NBond                                      I   N=           3
           2           1           1
IBond                                      I   N=           6
           2           3           1           0           1           0
RBond                                      R   N=           6
  1.00000000E+00  1.00000000E+00  1.00000000E+00  0.00000000E+00  1.00000000E+00
  0.00000000E+00
Virial Ratio                               R      2.003924230554013E+00
SCF Energy                                 R     -7.638678505962237E+01
Total Energy                               R     -7.638678505962237E+01
RMS Density                                R      1.936427276085181E-09
Job Status                                 I                1
Nuclear derivative order                   I                0
External E-field                           R   N=          35
  0.00000000E+00  0.00000000E+00  0.00000000E+00  0.00000000E+00  0.00000000E+00
  0.00000000E+00  0.00000000E+00  0.00000000E+00  0.00000000E+00  0.00000000E+00
  0.00000000E+00  0.00000000E+00  0.00000000E+00  0.00000000E+00  0.00000000E+00
  0.00000000E+00  0.00000000E+00  0.00000000E+00  0.00000000E+00  0.00000000E+00
  0.00000000E+00  0.00000000E+00  0.00000000E+00  0.00000000E+00  0.00000000E+00
  0.00000000E+00  0.00000000E+00  0.00000000E+00  0.00000000E+00  0.00000000E+00
  0.00000000E+00  0.00000000E+00  0.00000000E+00  0.00000000E+00  0.00000000E+00
IOpCl                                      I                0
IROHF                                      I                0
Alpha Orbital Energies                     R   N=         117
 -1.87552503E+01 -9.22833910E-01 -4.78310025E-01 -3.38243966E-01 -2.61886308E-01
 -1.42370767E-02  5.16006745E-02  2.15903637E-01  2.30828181E-01  2.37032049E-01
  2.61446619E-01  3.53337219E-01  4.18353719E-01  4.73754361E-01  5.34974445E-01
  5.69694515E-01  7.25670511E-01  8.44262274E-01  8.80184026E-01  9.16530424E-01
  9.50101272E-01  1.18846313E+00  1.19864190E+00  1.22099828E+00  1.28109007E+00
  1.28906317E+00  1.33429021E+00  1.69851153E+00  1.79256071E+00  1.89168859E+00
  1.90410828E+00  1.98872324E+00  2.16556113E+00  2.18486777E+00  2.21553909E+00
  2.21695902E+00  2.29737421E+00  2.41536089E+00  2.45708212E+00  2.53850680E+00
  2.55554417E+00  2.75445423E+00  2.82304101E+00  2.97588595E+00  2.99396109E+00
  3.09137028E+00  3.55036276E+00  3.66841100E+00  3.71124256E+00  3.72844762E+00
  3.90851622E+00  3.91157902E+00  4.05358381E+00  4.08850475E+00  4.24594240E+00
  4.43470860E+00  4.56715193E+00  4.62796589E+00  5.00573437E+00  5.14246362E+00
  5.19162825E+00  5.60656794E+00  5.74037871E+00  5.84793027E+00  5.91942718E+00
  6.22093451E+00  6.37529375E+00  6.56713324E+00  6.90910387E+00  6.91835012E+00
  6.97481927E+00  7.00268729E+00  7.08181305E+00  7.13046016E+00  7.15374557E+00
  7.24595607E+00  7.29803749E+00  7.56512877E+00  7.64318539E+00  7.70474665E+00
  7.70857136E+00  7.74041197E+00  7.87812146E+00  7.93311161E+00  8.13750044E+00
  8.28553131E+00  8.36523663E+00  8.54370680E+00  8.54431003E+00  8.78693505E+00
  8.83230470E+00  9.61082905E+00  9.63152279E+00  1.00234869E+01  1.00905271E+01
  1.04890213E+01  1.05077712E+01  1.07051195E+01  1.08198226E+01  1.09252585E+01
  1.11172633E+01  1.12365060E+01  1.14773048E+01  1.15300542E+01  1.16381138E+01
  1.16533910E+01  1.19563698E+01  1.25488041E+01  1.32311050E+01  1.32982456E+01
  1.33691611E+01  1.37910056E+01  1.41518312E+01  1.62959141E+01  1.63663307E+01
  4.78504326E+01  2.52424088E+02
Alpha MO coefficients                      R   N=       13689
  5.64651755E-01 -5.59370392E-03  3.58525217E-01  1.73306698E-01  1.46216502E-02
 -8.15823786E-03 -2.89009000E-03 -7.20282956E-18 -2.60281780E-15 -1.79438353E-03
  2.57277627E-16  2.13409186E-14  2.16824223E-03 -1.29562530E-15  1.05884080E-13
  2.32831743E-03  1.06681484E-16  9.82520152E-15  2.24315287E-04  6.19551506E-05
 -4.60168752E-18  1.88444890E-15 -2.41541257E-04 -5.22606956E-17 -1.74998390E-04
  2.28060068E-16 -1.01614141E-14  3.94226525E-04  3.24525473E-16 -3.14272150E-04
  4.22250923E-16 -4.79976236E-14  1.08564900E-03  1.26575152E-15  2.90725340E-05
 -6.05068775E-17 -5.76064144E-16  6.74296262E-05  5.32731011E-17 -6.83503453E-17
  4.40337099E-16 -2.28127210E-04 -9.19255022E-17  9.04362436E-15 -6.78882173E-04
 -6.74163336E-16  2.19912019E-16 -5.92251097E-15  6.35130421E-05 -5.90246331E-17
 -1.74370833E-16  1.08495261E-04  1.04333023E-16 -1.14536663E-16  1.39492684E-15
 -2.76234073E-05 -1.64306052E-16 -1.50032877E-04  2.82067346E-03  1.83842718E-03
 -8.65733526E-05  1.43665871E-16  4.61625524E-05  1.89497136E-05 -6.17923449E-16
 -1.28539139E-03  7.83933895E-04 -6.90347255E-17 -8.58152194E-04  5.90755064E-04
 -1.24302218E-05 -2.06463525E-17 -1.13814871E-04 -8.74415507E-05  1.72674638E-17
 -7.68038614E-05 -3.00405276E-16 -2.60448607E-04 -2.87826056E-04  2.14844707E-16
 -2.64820601E-05 -1.39629269E-17  6.71856158E-05  1.26723114E-05  1.57734171E-16
  1.22843875E-17  2.35333125E-05 -1.50032877E-04  2.82067346E-03  1.83842718E-03
 -8.65733526E-05 -1.33930195E-16 -4.61625524E-05  1.89497136E-05  7.03597278E-16
  1.28539139E-03  7.83933895E-04  1.07573093E-15  8.58152194E-04  5.90755064E-04
 -1.24302218E-05 -8.90553712E-17  1.13814871E-04 -8.74415507E-05  5.04676981E-17
 -7.68038614E-05  7.45569553E-16  2.60448607E-04 -2.87826056E-04  7.82074168E-16
 -2.64820601E-05  8.00221328E-17 -6.71856158E-05  1.26723114E-05  2.26360947E-16
 -2.46596613E-16 -2.35333125E-05 -1.17967997E-01 -1.75316161E-02 -1.37765421E-01
 -7.23566258E-02  2.89281330E-01  4.57689438E-01  1.78027365E-01 -1.08908026E-16
  4.99960706E-15 -6.66761655E-02 -4.34408684E-17 -1.20451272E-14 -6.50010001E-02
 -8.75169398E-16 -1.11512224E-13 -3.78153758E-02 -1.61971635E-16 -4.86062614E-16
 -2.48219242E-03  4.51536830E-04 -1.47394664E-16 -8.38644565E-16 -1.13974552E-03
 -1.22368580E-16  2.31027225E-03  1.18988724E-16  7.66100596E-15 -7.04674631E-03
  7.25724887E-17  2.08169229E-03  4.79151165E-16  5.33542844E-14 -4.97019686E-03
 -2.04653572E-16  3.26970596E-04  2.37283796E-16  7.98607645E-16  9.32359807E-04
  2.32515929E-16 -2.20253498E-16 -7.80342971E-16  3.28348454E-04 -2.23676348E-16
 -8.87874304E-15  1.63791627E-03 -1.14641115E-16  2.68435869E-16  8.71808803E-15
 -6.42592055E-05  3.39689679E-17 -4.86502431E-16 -1.73461411E-04  8.55359064E-17
 -7.54562149E-17 -1.57829402E-15  6.91739665E-05 -4.76038620E-17  5.53141369E-02
  8.51121670E-02  3.85388400E-02  4.31427598E-03 -1.96407446E-17 -5.13377513E-03
  3.44989594E-03  1.12840208E-16 -1.06699042E-02  6.08773911E-03  6.15017468E-16
 -7.06033772E-03  2.89318073E-03 -3.84635583E-05 -2.84711759E-17 -1.59458301E-03
 -1.24974612E-03  5.19261401E-17 -3.91411116E-04  2.28076521E-16 -1.13481573E-03
 -1.47933411E-03 -3.08395343E-16 -1.12467128E-04  4.66243818E-18 -6.16158979E-05
 -2.49334003E-04 -3.24653926E-17 -5.84773975E-17  2.09728517E-04  5.53141369E-02
  8.51121670E-02  3.85388400E-02  4.31427598E-03 -2.12477543E-17  5.13377513E-03
  3.44989594E-03  2.36514806E-16  1.06699042E-02  6.08773911E-03  3.48333914E-16
  7.06033772E-03  2.89318073E-03 -3.84635583E-05  1.14217337E-17  1.59458301E-03
 -1.24974612E-03  2.13990247E-17 -3.91411116E-04  1.01720918E-16  1.13481573E-03
 -1.47933411E-03  2.22392879E-16 -1.12467128E-04 -2.16063768E-17  6.16158979E-05
 -2.49334003E-04 -2.28923797E-17 -3.88311626E-19 -2.09728517E-04  5.88834861E-16
  1.02768995E-15 -2.34818068E-15  1.10566432E-14 -7.03676568E-14  2.35838853E-13
  6.28970168E-13 -8.41108700E-17  2.91036890E-01  3.66151274E-15  1.56389484E-16
  2.52795932E-01 -3.34110561E-14  1.37496903E-15  1.84178922E-01 -2.34834521E-13
 -4.65790227E-17  5.44801741E-02 -9.04238777E-14  5.51749105E-17  7.41086814E-17
 -4.57543708E-03  1.48755644E-15 -2.58891284E-17  1.96720843E-16 -2.43421226E-16
 -1.14576825E-02 -1.08911499E-14 -1.77066291E-16  1.33268025E-14 -9.66954095E-16
 -6.61986984E-03 -7.70023527E-14 -4.38311477E-16 -1.69332629E-17 -9.34745625E-17
  3.63110436E-04 -2.26640659E-16 -2.40576478E-17 -3.34312583E-17 -1.22267326E-03
  1.10333038E-14  5.01424019E-16 -3.13354860E-04  2.42912581E-14  2.60691332E-16
 -7.26809351E-17 -1.24245372E-03 -1.93482783E-15  3.99137421E-17  4.67383262E-05
 -2.57543759E-15 -4.30932268E-17  1.72660637E-16  7.45136424E-05  1.31631648E-15
  5.97898184E-17  8.41460551E-02  1.67937510E-01  1.49033327E-01  3.76666319E-02
  1.49884024E-16 -2.71982036E-03  4.06387210E-03 -3.69271102E-16 -1.28909505E-02
  1.76486670E-02 -3.35471228E-16 -7.15861072E-03  1.38147771E-02  9.42730171E-04
 -2.39962806E-17 -2.57211370E-03 -1.06600855E-03 -1.21502583E-16  2.63376613E-03
  5.18745297E-17 -6.07815648E-03 -2.07075595E-03  4.32718816E-16 -1.67946517E-04
  3.21298934E-16 -1.20038854E-03 -1.03252341E-03 -5.35914137E-17  1.90450575E-16
  3.23196040E-04 -8.41460551E-02 -1.67937510E-01 -1.49033327E-01 -3.76666319E-02
  7.74995745E-17 -2.71982036E-03 -4.06387210E-03 -6.99215088E-16 -1.28909505E-02
 -1.76486670E-02 -7.85027489E-16 -7.15861072E-03 -1.38147771E-02 -9.42730171E-04
  3.75402747E-17 -2.57211370E-03  1.06600855E-03  3.78676359E-17 -2.63376613E-03
 -3.90534435E-16 -6.07815648E-03  2.07075595E-03 -8.26522293E-16  1.67946517E-04
  2.11519538E-16 -1.20038854E-03  1.03252341E-03 -2.41582196E-16  3.47232406E-16
  3.23196040E-04 -4.53843399E-02 -6.77182704E-03 -5.48588413E-02 -2.60144095E-02
  1.06001500E-01  2.40021993E-01  2.58616239E-01 -4.96318910E-17  4.74558891E-15
  3.11487811E-01 -2.23900329E-16 -4.08853806E-14  2.78093191E-01 -3.64476197E-17
 -7.01852349E-13  2.05222674E-01  1.02851452E-16 -1.45056835E-13  1.48457645E-01
 -2.33335279E-03 -1.09214450E-16 -2.91718159E-15  1.37726016E-03 -2.77139049E-17
 -7.22984922E-03  1.31374435E-16  2.21075824E-14 -1.10583083E-03 -6.01078705E-17
 -7.11226569E-03 -1.06737295E-17  2.52132472E-13 -4.29927914E-03 -6.30925643E-17
  1.46824493E-05  9.04704585E-17  1.66839271E-15 -1.32009876E-03  1.64492554E-16
  4.39452347E-17 -1.21970819E-15  1.11313355E-03 -9.06134661E-17 -3.31842959E-14
  2.24236136E-03 -2.34450686E-17 -1.09779183E-17  2.22253620E-14 -2.85279955E-04
  4.68512818E-17  5.12227401E-16 -3.93388110E-04 -6.25817797E-17  2.12581893E-17
 -3.86934545E-15  1.36593140E-04 -2.41131013E-18 -4.77061209E-02 -1.17459140E-01
 -1.06435227E-01 -1.13397827E-02 -4.75400229E-17  2.69131627E-03  1.22668148E-03
  1.72640558E-16  2.05218393E-02 -1.26139955E-04 -1.17654409E-16  1.86601281E-02
  1.88224028E-02  9.29191258E-04  1.82773197E-18  1.45793254E-03  1.75154244E-03
 -4.02434046E-17  5.37209979E-03  3.83205802E-17 -2.75800506E-04  6.03007848E-03
 -1.01605018E-16  6.67522727E-04 -1.56068758E-17 -9.31445810E-04  4.07424956E-04
 -5.71119516E-17 -9.66651703E-17 -8.37180469E-04 -4.77061209E-02 -1.17459140E-01
 -1.06435227E-01 -1.13397827E-02 -4.34578967E-17 -2.69131627E-03  1.22668148E-03
  1.05328179E-16 -2.05218393E-02 -1.26139955E-04 -2.00463435E-16 -1.86601281E-02
  1.88224028E-02  9.29191258E-04 -3.91921413E-17 -1.45793254E-03  1.75154244E-03
 -4.92155514E-17  5.37209979E-03  1.89364867E-19  2.75800506E-04  6.03007848E-03
  3.93326289E-17  6.67522727E-04 -6.66077531E-18  9.31445810E-04  4.07424956E-04
 -2.39427563E-17  3.57847217E-18  8.37180469E-04  7.56078930E-18 -3.28044385E-17
  1.12922905E-16 -3.02647133E-16  1.80863835E-15 -7.08663151E-15 -6.48745101E-15
  3.55119773E-01 -7.66892534E-17 -9.95652989E-17  3.28433738E-01 -2.39380222E-15
  1.31362056E-15  2.82629155E-01 -3.00451647E-15  2.64418639E-15  2.14867588E-01
 -9.52242901E-16  4.14233071E-16 -2.76369387E-18 -2.34670183E-03 -5.90401029E-17
 -6.75216032E-17  2.42813577E-16 -2.31974215E-17 -6.76812074E-03  1.60432503E-16
  4.70108583E-16 -1.37699561E-15  7.87687087E-16 -1.07267591E-02 -2.63144310E-16
  1.55544352E-15 -1.93892632E-14  5.01476373E-18  4.71017681E-04 -5.32457890E-17
 -2.91517405E-17 -3.69755527E-16 -1.16748756E-03  3.86433310E-17 -4.44435906E-16
  2.26179873E-04  3.95002045E-16 -5.05769002E-16  6.94777809E-15 -6.59241425E-04
 -1.75329804E-17  4.75019991E-17 -3.65988556E-05  3.81402421E-17  4.43827055E-17
 -6.41496363E-16 -1.73902981E-04 -6.73934105E-17 -4.73875416E-17  6.86844406E-16
 -5.79499292E-16  2.93089666E-15  1.19526393E-14  5.76749356E-16  4.05634875E-03
  5.64502072E-17 -1.74994012E-16  1.65180473E-02 -7.70416350E-16  1.58359912E-15
  3.61226018E-02 -6.84750060E-15  3.81605546E-15  5.59095371E-18  1.22607697E-03
 -1.99269019E-17  6.10430003E-17 -1.39441322E-03  6.23367787E-16  5.20418225E-03
 -2.54935238E-15 -9.62028461E-16 -8.48882892E-03 -2.29115621E-16  4.84948779E-04
 -1.74837954E-17 -2.41047862E-16 -1.57151298E-03 -1.36709711E-03 -1.81363381E-16
  1.79731551E-16  2.03740412E-15 -3.28216061E-15 -1.10181914E-15  4.05634875E-03
 -3.91559272E-18 -3.14786513E-17  1.65180473E-02  1.16026818E-15  7.53559273E-16
  3.61226018E-02 -3.55518993E-15  3.61545617E-17 -2.78305990E-17  1.22607697E-03
  1.34381938E-16 -1.55165943E-16  1.39441322E-03  1.05575273E-16  5.20418225E-03
 -8.20343692E-16  3.63004703E-16  8.48882892E-03  1.26254723E-16  4.84948779E-04
  2.17154292E-16  5.09480417E-17  1.57151298E-03 -1.36709711E-03 -2.32883192E-16
 -4.02001484E-02 -7.25859882E-03 -4.56191385E-02 -3.50681549E-02  1.58640914E-01
 -3.21112903E-03  8.66940231E-01  4.19874846E-19  4.56389682E-14 -1.19490011E-01
 -3.57650909E-17 -6.97347903E-14 -8.24167373E-02 -9.67318862E-17 -1.51670592E-12
 -1.76870716E-01  3.04445292E-17  1.27079189E-13 -1.18207967E-01  7.09876705E-04
 -1.00296882E-16 -9.53441221E-15  5.38548944E-05 -1.58198170E-16  2.13895348E-03
  9.26748733E-17  6.34478767E-14  8.72768159E-03  8.99678112E-17  7.56239278E-03
  1.35524481E-17  5.60344968E-13 -1.56386254E-02  2.09076159E-17 -1.14337942E-03
  4.93122125E-17  3.56932521E-15 -2.49540947E-03  2.14914369E-16 -6.15746802E-17
 -3.52887324E-15  2.89651570E-03 -1.97662034E-17 -6.75943713E-14  9.30188734E-03
 -1.10995586E-16  6.96210834E-17  6.68560406E-14 -2.17544235E-04 -4.89600682E-17
 -2.76702735E-15 -4.69876535E-04 -5.47630304E-17 -3.69510566E-18 -1.19830662E-14
  4.36786519E-04 -3.71153612E-18 -1.90539319E-02 -1.05623282E-01 -5.21971508E-02
 -7.42721062E-01  1.71647996E-18 -1.78035692E-03 -4.74217661E-04 -6.90675098E-19
 -2.43996026E-02  1.73238894E-02  2.31632201E-17 -1.15678845E-02  4.91447235E-03
 -5.81441055E-04  2.41518977E-17 -2.73153386E-04 -1.16656698E-03 -2.95589258E-17
 -1.10876515E-03 -4.42605879E-18 -1.83560310E-02 -9.38159754E-03 -5.78752216E-19
 -2.03106303E-03  1.96290332E-18 -1.21421774E-03 -3.67625279E-03 -2.65393063E-17
 -2.94137653E-17  1.84542420E-03 -1.90539319E-02 -1.05623282E-01 -5.21971508E-02
 -7.42721062E-01 -3.26542938E-17  1.78035692E-03 -4.74217661E-04  1.05066436E-16
  2.43996026E-02  1.73238894E-02  4.21746748E-17  1.15678845E-02  4.91447234E-03
 -5.81441055E-04 -1.21506357E-17  2.73153386E-04 -1.16656698E-03 -4.83538502E-17
 -1.10876515E-03  6.00194408E-17  1.83560310E-02 -9.38159754E-03  6.70157678E-17
 -2.03106303E-03  1.85998003E-17  1.21421774E-03 -3.67625279E-03 -7.88026033E-19
  3.81997850E-17 -1.84542420E-03 -1.27104519E-14  1.25263796E-15 -2.57615103E-14
  3.56099273E-15  3.29057604E-13 -1.29375228E-12 -1.28055331E-11  5.55812858E-17
 -1.74609227E-01 -6.43055320E-14 -2.16811419E-17 -1.72547727E-01  3.97365398E-15
 -3.63949445E-17  9.72134116E-02  3.62231916E-12 -2.53404121E-16 -6.56340162E-01
  2.45934915E-12 -5.27396532E-15  1.13778824E-17  1.22743525E-03  3.60483727E-16
  1.88859643E-17  2.86814460E-14  1.06558034E-17 -1.08066670E-02  8.52311945E-15
 -4.89592613E-17 -2.67912303E-13  1.32875760E-16 -6.59983068E-02  9.92745348E-13
  1.59130629E-17  3.33851300E-15 -6.74740319E-18  2.55534827E-05  1.14767596E-14
 -1.91749277E-17 -3.84963046E-17  8.20265469E-04 -8.61486559E-14 -8.82023947E-17
  4.68955739E-03 -2.17678147E-13  1.89440307E-17  5.73721801E-17 -8.56902372E-03
  1.17921874E-14 -2.22458766E-17  9.10955339E-04  1.90264087E-14  1.63937141E-17
 -9.97707304E-18  1.17248745E-03 -1.15211302E-14  3.58075377E-18  1.74266034E-02
 -9.75137841E-03 -8.41539751E-02  1.82080737E+00 -2.11269753E-17  6.71203882E-04
  1.19279524E-04  6.56286011E-17  3.97878342E-02 -4.24302748E-02  1.00331445E-16
  6.86770312E-02 -5.42864488E-02 -4.86307898E-04  1.75369066E-17  1.60920029E-03
  1.08532679E-03  2.03411595E-17 -6.91771780E-03  2.13858803E-17  1.03577998E-02
  1.54369445E-03 -6.34675876E-17 -6.74582494E-04  7.47642430E-17  1.22979689E-03
  1.74272649E-04  8.86193057E-17 -1.04652863E-16  3.87279002E-04 -1.74266034E-02
  9.75137841E-03  8.41539751E-02 -1.82080737E+00  3.56702177E-17  6.71203882E-04
 -1.19279524E-04 -1.33958818E-17  3.97878342E-02  4.24302748E-02  1.32214356E-16
  6.86770312E-02  5.42864488E-02  4.86307898E-04 -4.39343267E-18  1.60920029E-03
 -1.08532679E-03  1.71715248E-17  6.91771780E-03 -4.01742338E-18  1.03577998E-02
 -1.54369445E-03  1.85361407E-17  6.74582494E-04  3.76385223E-17  1.22979689E-03
 -1.74272649E-04 -1.10434039E-16 -1.18341982E-16  3.87279002E-04 -2.45562908E-02
 -4.39848598E-03 -2.84075237E-02 -1.92845958E-02  9.46097099E-03  5.85282224E-01