fubar                                                                   
SP        RSVWN5                                                      Aug-CC-pVTZ         
Number of atoms                            I                3
Info1-9                                    I   N=           9
          12          12           0           0           0         110
           1          18         102
Full Title                                 C   N=           1
fubar       
Route                                      C   N=           6
#SVWN5/aug-cc-pVTZ scf=tight maxdisk=70GB Symmetry=none Polar
Charge                                     I                0
Multiplicity                               I                1
Number of electrons                        I               10
Number of alpha electrons                  I                5
Number of beta electrons                   I                5
Number of basis functions                  I               92
Number of independent functions            I               92
Number of point charges in /Mol/           I                0
Number of translation vectors              I                0
Atomic numbers                             I   N=           3
           8           1           1
Nuclear charges                            R   N=           3
  8.00000000E+00  1.00000000E+00  1.00000000E+00
Current cartesian coordinates              R   N=           9
  0.00000000E+00  0.00000000E+00  2.24056871E-01  0.00000000E+00  1.45747460E+00
 -8.96227484E-01  0.00000000E+00 -1.45747460E+00 -8.96227484E-01
Number of symbols in /Mol/                 I                0
Int Atom Types                             I   N=           3
           0           0           0
Force Field                                I                0
Atom Types                                 C   N=           3
                                    
MM charges                                 R   N=           3
  0.00000000E+00  0.00000000E+00  0.00000000E+00
Integer atomic weights                     I   N=           3
          16           1           1
Real atomic weights                        R   N=           3
  1.59949146E+01  1.00782504E+00  1.00782504E+00
Atom fragment info                         I   N=           3
           0           0           0
Atom residue num                           I   N=           3
           0           0           0
Nuclear spins                              I   N=           3
           0           1           1
Nuclear ZEff                               R   N=           3
 -5.60000000E+00 -1.00000000E+00 -1.00000000E+00
Nuclear ZNuc                               R   N=           3
  8.00000000E+00  1.00000000E+00  1.00000000E+00
Nuclear QMom                               R   N=           3
  0.00000000E+00  0.00000000E+00  0.00000000E+00
Nuclear GFac                               R   N=           3
  0.00000000E+00  2.79284600E+00  2.79284600E+00
MicOpt                                     I   N=           3
          -1          -1          -1
Number of residues                         I                0
Number of secondary structures             I                0
Number of contracted shells                I               32
Number of primitive shells                 I               49
Pure/Cartesian d shells                    I                0
Pure/Cartesian f shells                    I                0
Highest angular momentum                   I                3
Largest degree of contraction              I                7
Shell types                                I   N=          32
           0           0           0           0           0           1
           1           1           1          -2          -2          -2
          -3          -3           0           0           0           0
           1           1           1          -2          -2           0
           0           0           0           1           1           1
          -2          -2
Number of primitives per shell             I   N=          32
           7           6           1           1           1           3
           1           1           1           1           1           1
           1           1           3           1           1           1
           1           1           1           1           1           3
           1           1           1           1           1           1
           1           1
Shell to atom map                          I   N=          32
           1           1           1           1           1           1
           1           1           1           1           1           1
           1           1           2           2           2           2
           2           2           2           2           2           3
           3           3           3           3           3           3
           3           3
Primitive exponents                        R   N=          49
  1.53300000E+04  2.29900000E+03  5.22400000E+02  1.47300000E+02  4.75500000E+01
  1.67600000E+01  6.20700000E+00  5.22400000E+02  1.47300000E+02  4.75500000E+01
  1.67600000E+01  6.20700000E+00  6.88200000E-01  1.75200000E+00  2.38400000E-01
  7.37600000E-02  3.44600000E+01  7.74900000E+00  2.28000000E+00  7.15600000E-01
  2.14000000E-01  5.97400000E-02  2.31400000E+00  6.45000000E-01  2.14000000E-01
  1.42800000E+00  5.00000000E-01  3.38700000E+01  5.09500000E+00  1.15900000E+00
  3.25800000E-01  1.02700000E-01  2.52600000E-02  1.40700000E+00  3.88000000E-01
  1.02000000E-01  1.05700000E+00  2.47000000E-01  3.38700000E+01  5.09500000E+00
  1.15900000E+00  3.25800000E-01  1.02700000E-01  2.52600000E-02  1.40700000E+00
  3.88000000E-01  1.02000000E-01  1.05700000E+00  2.47000000E-01
Contraction coefficients                   R   N=          49
  5.19808943E-04  4.02025621E-03  2.07128267E-02  8.10105536E-02  2.35962985E-01
  4.42653446E-01  3.57064423E-01 -4.42115008E-05 -1.22591041E-03 -1.05517725E-02
 -6.74452633E-02 -1.71198607E-01  1.07329856E+00  1.00000000E+00  1.00000000E+00
  1.00000000E+00  4.11634896E-02  2.57762836E-01  8.02419274E-01  1.00000000E+00
  1.00000000E+00  1.00000000E+00  1.00000000E+00  1.00000000E+00  1.00000000E+00
  1.00000000E+00  1.00000000E+00  2.54948632E-02  1.90362766E-01  8.52162022E-01
  1.00000000E+00  1.00000000E+00  1.00000000E+00  1.00000000E+00  1.00000000E+00
  1.00000000E+00  1.00000000E+00  1.00000000E+00  2.54948632E-02  1.90362766E-01
  8.52162022E-01  1.00000000E+00  1.00000000E+00  1.00000000E+00  1.00000000E+00
  1.00000000E+00  1.00000000E+00  1.00000000E+00  1.00000000E+00
Coordinates of each shell                  R   N=          96
  0.00000000E+00  0.00000000E+00  2.24056871E-01  0.00000000E+00  0.00000000E+00
  2.24056871E-01  0.00000000E+00  0.00000000E+00  2.24056871E-01  0.00000000E+00
  0.00000000E+00  2.24056871E-01  0.00000000E+00  0.00000000E+00  2.24056871E-01
  0.00000000E+00  0.00000000E+00  2.24056871E-01  0.00000000E+00  0.00000000E+00
  2.24056871E-01  0.00000000E+00  0.00000000E+00  2.24056871E-01  0.00000000E+00
  0.00000000E+00  2.24056871E-01  0.00000000E+00  0.00000000E+00  2.24056871E-01
  0.00000000E+00  0.00000000E+00  2.24056871E-01  0.00000000E+00  0.00000000E+00
  2.24056871E-01  0.00000000E+00  0.00000000E+00  2.24056871E-01  0.00000000E+00
  0.00000000E+00  2.24056871E-01  0.00000000E+00  1.45747460E+00 -8.96227484E-01
  0.00000000E+00  1.45747460E+00 -8.96227484E-01  0.00000000E+00  1.45747460E+00
 -8.96227484E-01  0.00000000E+00  1.45747460E+00 -8.96227484E-01  0.00000000E+00
  1.45747460E+00 -8.96227484E-01  0.00000000E+00  1.45747460E+00 -8.96227484E-01
  0.00000000E+00  1.45747460E+00 -8.96227484E-01  0.00000000E+00  1.45747460E+00
 -8.96227484E-01  0.00000000E+00  1.45747460E+00 -8.96227484E-01  0.00000000E+00
 -1.45747460E+00 -8.96227484E-01  0.00000000E+00 -1.45747460E+00 -8.96227484E-01
  0.00000000E+00 -1.45747460E+00 -8.96227484E-01  0.00000000E+00 -1.45747460E+00
 -8.96227484E-01  0.00000000E+00 -1.45747460E+00 -8.96227484E-01  0.00000000E+00
 -1.45747460E+00 -8.96227484E-01  0.00000000E+00 -1.45747460E+00 -8.96227484E-01
  0.00000000E+00 -1.45747460E+00 -8.96227484E-01  0.00000000E+00 -1.45747460E+00
 -8.96227484E-01
Num ILSW                                   I              100
ILSW                                       I   N=         100
           0           0           0           0           2           0
           0           0           0           0         201  9395240960
           5           0           0           0           0           0
           0           0           1           0           0           0
           1           1           0           0           0           0
           0           0      100000           0          -1           0
           0           0           0           0           0           0
           0           0           0           1           0           0
           0 -2000000000           1           0           0           0
           0           0           4          52           0           0
           0           0           0           0           0           0
           0           0           0           0           0           1
           0           0           0           0           0           0
           0           0           0           0           0           0
           0           0           0           0           0           0
           0           0           0           0           0           0
           0           0           0           0
Num RLSW                                   I               52
RLSW                                       R   N=          52
  1.00000000E+00  1.00000000E+00  1.00000000E+00  1.00000000E+00  0.00000000E+00
  0.00000000E+00  0.00000000E+00  1.00000000E+00  0.00000000E+00  0.00000000E+00
  0.00000000E+00  0.00000000E+00  1.00000000E+00  0.00000000E+00  0.00000000E+00
  0.00000000E+00  0.00000000E+00  1.00000000E+00  0.00000000E+00  0.00000000E+00
  0.00000000E+00  0.00000000E+00  1.00000000E+00  0.00000000E+00  0.00000000E+00
  0.00000000E+00  0.00000000E+00  1.00000000E+00  0.00000000E+00  0.00000000E+00
  0.00000000E+00  0.00000000E+00  1.00000000E+00  0.00000000E+00  0.00000000E+00
  0.00000000E+00  0.00000000E+00  0.00000000E+00  1.00000000E+00  1.00000000E+00
  0.00000000E+00  1.00000000E+00  0.00000000E+00  0.00000000E+00  0.00000000E+00
  0.00000000E+00  0.00000000E+00  0.00000000E+00  0.00000000E+00  0.00000000E+00
  0.00000000E+00  0.00000000E+00
MxBond                                     I                2
NBond                                      I   N=           3
           2           1           1
IBond                                      I   N=           6
           2           3           1           0           1           0
RBond                                      R   N=           6
  1.00000000E+00  1.00000000E+00  1.00000000E+00  0.00000000E+00  1.00000000E+00
  0.00000000E+00
Virial Ratio                               R      2.006664828632033E+00
SCF Energy                                 R     -7.590570830669716E+01
Total Energy                               R     -7.590570830669716E+01
RMS Density                                R      8.769588375743927E-09
Job Status                                 I                1
Nuclear derivative order                   I                0
External E-field                           R   N=          35
  0.00000000E+00  0.00000000E+00  0.00000000E+00  0.00000000E+00  0.00000000E+00
  0.00000000E+00  0.00000000E+00  0.00000000E+00  0.00000000E+00  0.00000000E+00
  0.00000000E+00  0.00000000E+00  0.00000000E+00  0.00000000E+00  0.00000000E+00
  0.00000000E+00  0.00000000E+00  0.00000000E+00  0.00000000E+00  0.00000000E+00
  0.00000000E+00  0.00000000E+00  0.00000000E+00  0.00000000E+00  0.00000000E+00
  0.00000000E+00  0.00000000E+00  0.00000000E+00  0.00000000E+00  0.00000000E+00
  0.00000000E+00  0.00000000E+00  0.00000000E+00  0.00000000E+00  0.00000000E+00
IOpCl                                      I                0
IROHF                                      I                0
Alpha Orbital Energies                     R   N=          92
 -1.86145649E+01 -9.20713068E-01 -4.83485105E-01 -3.44234992E-01 -2.70583169E-01
 -3.50948368E-02  1.79052458E-02  6.96795241E-02  9.06002252E-02  9.67499772E-02
  1.00761510E-01  1.45360643E-01  1.61610132E-01  1.83716830E-01  2.09277360E-01
  2.12453641E-01  3.03896496E-01  3.12656947E-01  3.24998923E-01  4.54206013E-01
  4.91526961E-01  5.41616567E-01  5.61352452E-01  5.63142426E-01  6.49820180E-01
  6.81166842E-01  6.98861575E-01  7.30088513E-01  7.30456581E-01  7.60545258E-01
  7.84273014E-01  7.89261905E-01  8.54111704E-01  8.59900501E-01  8.78959176E-01
  9.62209507E-01  1.00843135E+00  1.02097915E+00  1.07905001E+00  1.28286482E+00
  1.31921142E+00  1.33909513E+00  1.52970121E+00  1.56331522E+00  1.67616737E+00
  1.78999083E+00  1.92396960E+00  1.97915418E+00  2.00682696E+00  2.05730259E+00
  2.09850055E+00  2.11135018E+00  2.15775431E+00  2.36668760E+00  2.37216284E+00
  2.40595099E+00  2.50729943E+00  2.54443811E+00  3.23459295E+00  3.33200227E+00
  3.52951267E+00  3.63416734E+00  3.79598296E+00  3.85667845E+00  3.91773688E+00
  3.99347613E+00  4.00037919E+00  4.01824843E+00  4.05860232E+00  4.19237191E+00
  4.32835469E+00  4.69368534E+00  4.72013257E+00  4.79637838E+00  4.79921852E+00
  4.98665021E+00  5.18138500E+00  5.59887645E+00  5.95503470E+00  6.13227331E+00
  6.29408907E+00  6.53389743E+00  6.60023022E+00  6.66983386E+00  6.69227589E+00
  6.69989753E+00  6.71576413E+00  6.89086368E+00  7.25882603E+00  7.26922957E+00
  8.08596150E+00  1.44802495E+01
Alpha MO coefficients                      R   N=        8464
  9.65115768E-01 -2.87124109E-02  6.50403197E-02  6.16255318E-03  3.20924925E-03
 -7.25119591E-18  1.77482153E-15 -1.90935952E-03 -2.32254263E-16 -1.95043537E-14
  4.16065867E-03 -8.70391219E-16 -5.71227431E-14 -4.59634517E-03 -1.42543232E-16
 -1.31566334E-14 -1.02637137E-03 -5.71049967E-05 -3.45831993E-16 -1.53020723E-16
 -1.70384016E-04  9.87903259E-17  3.38732752E-04  3.56120285E-16  1.07282892E-14
  1.58239928E-03 -2.12479839E-16  9.46587431E-04  2.69550544E-16  1.11306898E-14
 -1.72927884E-03 -2.14415611E-16 -3.04488049E-04  3.39194387E-17 -2.15045082E-15
 -7.20702702E-04 -1.48373130E-16 -3.03096784E-16  4.49072345E-16 -4.62768372E-06
 -8.97004928E-17  9.16114682E-16  6.14422067E-04  2.64903245E-16  3.42714765E-16
  1.80290764E-15  5.78193972E-04  4.75510719E-04 -1.79408339E-03 -1.10740925E-05
 -1.10517481E-16 -7.96191705E-04  5.77800219E-04  8.60273469E-16 -1.95309810E-03
  2.65923864E-03  2.47268575E-16 -3.65291414E-04  4.49286578E-04  1.57615980E-04
  5.88955390E-17 -5.90592547E-04 -2.67812084E-04 -5.30090981E-17  3.33954072E-04
  1.87146398E-16 -1.70156363E-03 -8.14445867E-04 -2.93568263E-16  5.78193972E-04
  4.75510719E-04 -1.79408339E-03 -1.10740925E-05 -4.98127727E-17  7.96191705E-04
  5.77800219E-04  1.49696655E-16  1.95309810E-03  2.65923864E-03  9.88243302E-17
  3.65291414E-04  4.49286578E-04  1.57615980E-04  2.36061608E-17  5.90592547E-04
 -2.67812084E-04  3.37827014E-17  3.33954072E-04  4.03635500E-17  1.70156363E-03
 -8.14445867E-04  6.41654242E-17 -2.04771379E-01  4.66063170E-01  1.37258719E-01
  2.76798773E-01  2.99266669E-02 -3.00822247E-17 -2.81739410E-15 -7.18117838E-02
  1.11583886E-17 -4.31049225E-14 -8.43667631E-02  1.24017337E-15 -5.94303441E-14
 -2.32606796E-02  1.04014139E-15 -2.49979355E-13 -2.12412129E-03  1.44911601E-03
  2.85794910E-17 -2.66767264E-16 -4.39661992E-03  2.15155114E-17  4.65944964E-03
 -9.50265152E-17  1.52367305E-14 -8.35893587E-03 -1.27083114E-16  1.28295100E-03
 -5.69480056E-16 -1.56472601E-13  3.12182421E-03 -1.93050343E-16  3.91279857E-04
  5.35693037E-18 -7.86183300E-16  1.84938903E-03  3.51019563E-17 -4.73744157E-17
  2.86148580E-17 -1.40585288E-03  8.33926037E-17  2.03176078E-14 -8.68414946E-04
  5.26463576E-17 -6.03604580E-17 -6.39879181E-15  9.21785289E-02  8.45486002E-02
 -6.68425754E-03 -1.33591079E-03  2.86970868E-17 -1.05929297E-02  7.06824462E-03
 -3.17266961E-16 -9.86933174E-03  6.29720130E-03 -5.17708627E-16  3.91100552E-03
 -3.08032974E-03  6.96626034E-05  6.18244449E-20 -2.34627198E-03 -1.59207564E-03
  1.93438203E-17  3.48999965E-05 -1.02018112E-16  1.11489322E-03  4.22851459E-04
  1.88162789E-16  9.21785289E-02  8.45486002E-02 -6.68425755E-03 -1.33591079E-03
  3.59841494E-18  1.05929297E-02  7.06824462E-03 -4.59931581E-16  9.86933174E-03
  6.29720130E-03 -1.10560178E-15 -3.91100553E-03 -3.08032974E-03  6.96626034E-05
 -3.07265478E-17  2.34627198E-03 -1.59207564E-03 -4.73849332E-17  3.48999965E-05
 -2.22629441E-16 -1.11489322E-03  4.22851459E-04 -3.76216502E-16 -2.27142079E-15
  3.96024703E-15 -3.59415914E-15 -9.01452424E-14 -5.44694678E-13  4.40190908E-16
  3.05446392E-01 -2.03004248E-15  4.74908636E-16  3.20300230E-01 -1.15711118E-14
 -1.32409702E-15  1.36535167E-01 -3.20977497E-14 -7.97885379E-16  6.91143393E-03
  8.59225099E-14  9.65760371E-16  2.45832800E-18 -1.04477849E-02  1.29292661E-15
  5.83426927E-17 -2.46612175E-15 -1.25295000E-17 -1.12345797E-02 -1.29103208E-14
 -1.37829760E-16  5.76667235E-15  6.70771041E-16  6.60383694E-03 -4.41052831E-14
 -5.24110127E-16  8.28182628E-16 -6.27841868E-18 -8.71756620E-04  2.39572629E-16
  5.67553333E-17  5.83198903E-17 -2.16764396E-03  7.28603635E-15 -1.51298472E-16
  7.98878207E-04  1.49393987E-14  7.60276968E-17  1.31092725E-16 -1.21167510E-03
  1.41493133E-01  2.34618635E-01  6.96218589E-02 -1.65037390E-03  2.15343898E-17
 -8.77804931E-03  1.21397479E-02  8.06151568E-16 -1.99122867E-02  2.90243132E-02
  2.11115592E-15  2.56384975E-03  3.98819056E-03  2.07537923E-03  4.53754359E-17
 -6.69737771E-03 -3.38413051E-03 -1.01022877E-16  1.87130740E-03  4.23878604E-16
 -3.87753569E-03  2.64813211E-04 -6.78194171E-16 -1.41493133E-01 -2.34618635E-01
 -6.96218589E-02  1.65037390E-03  1.73412771E-17 -8.77804931E-03 -1.21397479E-02
  2.86903740E-16 -1.99122867E-02 -2.90243132E-02  5.62624826E-16  2.56384975E-03
 -3.98819056E-03 -2.07537923E-03 -9.35635649E-17 -6.69737771E-03  3.38413051E-03
 -7.92926330E-17 -1.87130740E-03  7.32457721E-17 -3.87753569E-03 -2.64813211E-04
  3.07517488E-16 -7.74625991E-02  1.92155577E-01  5.65630681E-02  3.66350495E-01
  1.18241175E-01  2.32885363E-16 -4.47492926E-17  3.23787300E-01  3.42901850E-16
 -4.91631658E-14  3.54496574E-01 -3.67905017E-15 -7.10078199E-13  2.03650486E-01
 -1.12555568E-15 -6.04019489E-13  2.17309364E-02 -6.07120169E-03 -3.47065213E-17
 -1.77069521E-15  1.68955076E-03 -8.13043137E-17 -1.57088237E-02  1.36327692E-16
  3.57047279E-14 -5.86729744E-03  9.55622106E-17 -6.20202692E-03  1.27993321E-15
  9.36947389E-14 -1.28469489E-02 -2.41133186E-16  8.47903856E-04  6.48102186E-17
 -1.43835771E-15 -1.92833664E-03 -1.32916920E-17 -3.61491942E-17 -9.28083329E-16
  1.75864914E-03 -1.65228257E-16  1.46746258E-14  1.04610911E-03 -3.42642742E-17
  3.44956802E-16  1.51648352E-14 -8.13214649E-02 -1.80452250E-01 -8.75199512E-02
 -4.00063294E-03 -6.93787898E-17  8.73926367E-03  2.58152681E-03  1.19679937E-15
  3.34933056E-02  1.51222197E-03  1.95778055E-15  8.02053746E-03  1.22440656E-02
  2.22824494E-03  2.56756017E-18  2.02780640E-03  3.53381180E-03 -4.09755459E-18
  1.25187916E-03  5.69953279E-16 -8.65658449E-04  2.89389342E-03 -7.85335438E-16
 -8.13214649E-02 -1.80452250E-01 -8.75199512E-02 -4.00063295E-03 -7.70488429E-17
 -8.73926367E-03  2.58152681E-03  1.21622714E-15 -3.34933056E-02  1.51222197E-03
  1.19900893E-15 -8.02053746E-03  1.22440656E-02  2.22824494E-03  3.22634449E-17
 -2.02780640E-03  3.53381180E-03  2.71136133E-17  1.25187916E-03  4.69217365E-16
  8.65658449E-04  2.89389342E-03  7.00872544E-16  2.40442882E-17 -1.96661076E-16
  8.82776651E-17 -4.52921117E-15  1.12313279E-14  3.66195081E-01 -7.01263308E-16
 -2.13688752E-16  4.22726285E-01  1.44828640E-15  6.51854296E-16  3.23654809E-01
 -2.67496655E-15  1.41849181E-15  5.44479517E-02  4.20192270E-15 -2.75823801E-15
 -1.90615149E-17 -6.08093942E-03 -4.83093084E-17 -2.18707528E-17  3.61546619E-18
  1.50560531E-16 -1.43476168E-02 -4.31329003E-16  5.94011165E-16 -3.98657536E-15
  1.68949854E-16 -8.15024925E-03  3.16880193E-15  7.60180343E-16  3.42508108E-15
 -2.12943591E-17  1.26679883E-03  1.10078524E-16 -4.30125644E-17 -2.39858506E-16
 -3.25216726E-03 -1.28606897E-16 -2.13783117E-16  8.81961278E-04 -3.47360646E-16
 -2.57430665E-16  3.70959200E-15 -1.16039054E-03  2.79659833E-16  1.82601463E-16
  5.97538354E-15 -2.05376779E-14 -5.75903621E-15  1.10478687E-02 -8.79192278E-17
  1.36436581E-16  3.27165587E-02  1.12697892E-15 -4.66071238E-16  2.70152713E-02
  7.93549365E-15 -3.89384694E-15  4.10311752E-17  3.04271206E-03  1.52517753E-16
  1.03772154E-16 -4.06138297E-03 -1.09421403E-16  3.46133419E-03  1.48854049E-15
  1.57739035E-15 -5.91604639E-03 -2.86419339E-16  1.95249038E-15  9.52521529E-15
  3.61671438E-15  1.10478687E-02  1.13809924E-16  7.31322528E-17  3.27165587E-02
  2.76317552E-15  2.11572650E-15  2.70152713E-02  5.17262807E-15  2.65389645E-15
  6.83634090E-17  3.04271206E-03  5.11168447E-16 -2.17931608E-16  4.06138297E-03
  2.93775497E-16  3.46133419E-03  1.19818826E-15 -1.18976932E-15  5.91604639E-03
  5.73335027E-02 -1.54348691E-01 -5.11878742E-02 -2.99084902E-01 -1.53603777E-01
 -9.06494238E-17  4.00907258E-15  1.03129872E-01  2.85720394E-16 -1.98003403E-14
  1.21955109E-01  8.95278099E-16 -1.54112537E-13  1.57664478E-01  5.56561207E-16
  1.26726176E-13 -3.86070394E-02 -1.44988638E-03 -2.82883665E-17 -3.63052684E-16
 -1.23936187E-03 -6.87527797E-17 -6.00847809E-03 -1.46993047E-16  1.90185856E-14
 -5.46326731E-04  1.04249025E-16 -6.08008890E-05 -3.00194866E-16  1.07660108E-13
  2.91273375E-03  7.86830385E-17  5.03210043E-04  1.07092981E-16 -1.12263971E-15
  1.41703230E-04  1.49132545E-16 -5.89820373E-18  4.61022070E-17 -1.78511424E-03
 -1.72272622E-17 -7.13446410E-15 -4.17777864E-03 -1.32802550E-16 -1.65554512E-16
  9.55311929E-15  2.82106316E-02  1.10055925E-01  2.43431935E-01  3.99999469E-01
  1.88743710E-17  8.85985259E-03 -4.30571284E-03 -5.13989491E-16  2.34728560E-02
 -1.59747305E-02 -5.36857554E-16  4.19539593E-02 -4.30891140E-02  7.84628106E-04
 -1.12475119E-16  1.95509068E-03  1.81893822E-03  1.14225658E-16  1.66949578E-03
 -1.68924980E-16  3.46590103E-03  2.58981666E-04  1.91690764E-16  2.82106316E-02
  1.10055925E-01  2.43431935E-01  3.99999469E-01 -6.14851494E-17 -8.85985259E-03
 -4.30571284E-03 -1.82966573E-16 -2.34728560E-02 -1.59747305E-02 -5.34687955E-16
 -4.19539593E-02 -4.30891140E-02  7.84628106E-04 -1.08030362E-16 -1.95509068E-03
  1.81893822E-03 -1.15153133E-16  1.66949578E-03 -9.65682720E-17 -3.46590103E-03
  2.58981665E-04 -1.06943243E-16  1.66160792E-14 -2.91371720E-13 -2.43021573E-13
  2.25410722E-11  4.24195830E-11 -2.14460998E-16 -1.12430810E-01  2.15418566E-13
  3.02954843E-16 -1.40245402E-01 -1.20722599E-12  5.77310967E-16 -3.32590870E-01
 -8.86653059E-12 -4.37385817E-16 -5.18596930E-01 -7.28261033E-12 -8.26846652E-16
  5.44546084E-17 -2.33298058E-04  2.32090265E-14  8.11746774E-17  4.81048936E-14
 -5.37475392E-16  7.57700084E-03 -7.86518696E-13 -2.10365012E-16  3.54421212E-13
 -2.27327330E-18  6.78865912E-02 -1.94994368E-12  1.46279723E-15  3.90204004E-14
  9.52461658E-17  5.97825454E-04  5.64825758E-14 -7.86455801E-17  1.55464551E-16
  4.78420123E-04  1.14019750E-13  1.68687122E-16 -4.00007476E-03  3.12994534E-13
  1.60979205E-16 -4.56767057E-16  4.65959095E-03  1.14617775E-02  1.51277336E-01
  7.19051630E-01  2.36722204E+00 -5.78480168E-17  4.33902939E-03 -5.58696806E-03
 -1.03436889E-15 -6.64822541E-03  7.49229675E-03 -4.72020048E-16 -1.76443989E-02
  5.02649456E-02 -9.13628147E-04 -1.57556183E-16 -3.62782355E-04 -1.00212644E-03
  2.87928972E-16  7.75070989E-04 -8.57872688E-16 -8.33632500E-03  2.23705793E-03
 -3.41057640E-16 -1.14617775E-02 -1.51277336E-01 -7.19051630E-01 -2.36722204E+00
  6.15702777E-17  4.33902939E-03  5.58696806E-03 -1.43517884E-16 -6.64822541E-03
 -7.49229675E-03  3.19766421E-16 -1.76443989E-02 -5.02649456E-02  9.13628147E-04
 -3.64547893E-16 -3.62782355E-04  1.00212644E-03 -3.43734860E-16 -7.75070989E-04
  5.31858926E-16 -8.33632500E-03 -2.23705793E-03 -6.12693448E-16  2.67136808E-02
 -8.88566704E-02 -3.51323507E-02  1.27073041E+00  5.05779900E+00 -5.77407728E-16
  1.14827528E-12  1.33248365E-01 -1.63980565E-16 -1.80837631E-14  8.95591580E-02
  1.00559828E-14 -1.34209107E-11 -3.21662082E-01  1.15704535E-14 -1.70331972E-11
 -1.17615749E+00 -1.45024928E-03  2.32235886E-16 -2.97969941E-14 -9.24283653E-04
 -5.49357048E-17 -4.49248599E-03 -2.09050850E-16  1.19128499E-12 -3.51065428E-02
  6.16043458E-17  3.03180277E-02 -3.87861808E-15  3.99985097E-12 -7.35391532E-02
 -1.77716909E-16  2.00593235E-03  2.96302483E-17 -4.06820261E-14  2.75043967E-03
 -1.52981261E-17 -4.72479926E-17  7.77477002E-15  2.22239949E-03  2.45632533E-17
 -2.19489484E-13  5.21379738E-03  7.37813909E-17 -4.84708047E-16  2.60391062E-13
  2.92228034E-02 -2.11662945E-01 -2.01446068E+00 -9.90963408E-01  1.82557715E-16
  6.55654108E-03 -3.84590131E-03 -2.42901712E-15  1.90838238E-01 -1.38571038E-01
 -7.62787490E-15  6.34099022E-01 -5.08252546E-01 -9.21269886E-04  3.55985015E-17
  1.08491517E-02  7.46535763E-03  2.36125087E-16  7.95878869E-03 -1.46710971E-15
  7.71602608E-02  5.06979696E-02  2.07459871E-15  2.92228034E-02 -2.11662945E-01
 -2.01446068E+00 -9.90963408E-01  2.86471273E-17 -6.55654108E-03 -3.84590131E-03
 -2.47539062E-15 -1.90838238E-01 -1.38571038E-01 -7.62601088E-15 -6.34099022E-01
 -5.08252546E-01 -9.21269886E-04 -1.83347791E-16 -1.08491517E-02  7.46535763E-03
 -1.53568421E-16  7.95878869E-03 -1.57883497E-15 -7.71602608E-02  5.06979696E-02
 -2.25038516E-15  4.97423482E-16 -1.55862783E-15 -6.95046276E-16  1.16900096E-14
 -3.08139117E-15 -1.38641385E-01 -1.27844336E-15 -7.93326560E-16 -1.46606081E-01
  9.61787528E-16 -1.97308278E-15 -1.14885128E-01  3.14349792E-14 -6.03605516E-15
  1.42946986E+00  2.80918706E-14  2.02683794E-14  2.27960428E-18 -6.35945039E-04
  5.48630426E-17  4.50057875E-17 -7.52802964E-16  4.43946377E-17  2.21944826E-02
 -2.21500741E-15 -1.07771264E-15  1.21908267E-14 -1.35807085E-15 -1.16414415E-01
 -1.00418193E-14 -2.18934639E-15 -1.08884002E-13  2.13630586E-17 -1.41373922E-03
  7.51104392E-17  5.77072922E-17 -1.74389471E-15  2.83454161E-03  8.54077545E-18
  3.52966422E-16  3.62402992E-03  3.55103697E-16  5.34634518E-16  3.00845113E-15
 -4.26685566E-03 -8.04595476E-16  8.97785170E-16 -2.69130390E-14 -3.44755650E-14
 -2.71370742E-14  5.07470837E-05  5.23078494E-16 -2.20177069E-16 -9.55840059E-03
  5.79707722E-15 -6.72445980E-15 -2.53010014E-01  8.85075225E-15 -1.56585282E-14
 -1.02196912E-16  9.26688118E-04  5.87911631E-16  3.31540420E-16 -4.02181350E-04
 -1.95077566E-15 -2.44350381E-02  1.54558361E-15 -1.29952948E-15  3.71186140E-02
  4.29122018E-17  1.25300179E-14  4.88885533E-14  2.43946782E-14  5.07470837E-05
  1.74492166E-16  1.15022655E-17 -9.55840059E-03  2.28544923E-15  2.87562284E-15
 -2.53010014E-01  5.13739448E-15  8.84759203E-15 -2.03333817E-17  9.26688118E-04
  1.65913939E-16 -2.54134700E-16  4.02181350E-04  5.67882154E-16 -2.44350381E-02
  7.30689153E-16  1.41508167E-15 -3.71186140E-02  5.49291261E-02 -1.47341411E-01
 -5.79817525E-02  3.89481319E-01  7.68769827E-01  1.81912526E-15  3.07496904E-13
 -2.70611495E-02  2.03660460E-15 -8.93099875E-14 -6.29981019E-02  1.26578555E-14
 -3.65972295E-12 -3.19837858E-01 -1.10930099E-14 -3.45322259E-12  1.27428403E+00
 -2.05437662E-03  3.60103936E-18 -6.07368207E-15 -1.23550470E-04 -1.88743737E-17
  1.48016927E-02 -7.48751618E-16  3.88312026E-13 -4.43012815E-02  1.39125243E-16
 -4.79662499E-02 -2.54961108E-15  1.14052316E-12 -3.02623117E-02 -6.59813434E-16
  1.13890179E-03 -1.90461535E-16 -1.47586771E-14  2.52011198E-03 -8.97598870E-17
 -2.60450851E-17  5.78230074E-15  8.76922328E-03  5.14452607E-16 -8.00712173E-14
  1.72476753E-02  5.69973532E-17 -6.90633049E-16  7.20569821E-14  4.91043868E-02
 -1.68654445E-01  3.63207080E-01 -4.56120925E-01 -8.01424999E-17  1.00873907E-02
 -5.45472647E-03 -2.63668493E-15  9.39248545E-02 -5.63311529E-02 -3.21348417E-15
  3.73897811E-01 -2.96743826E-01 -1.00153351E-03 -1.12657034E-16  6.67082771E-03
  1.62661939E-03  2.82759985E-16 -5.91318510E-04 -8.11129044E-16  4.17862988E-02
  3.15708601E-02  1.50873467E-15  4.91043868E-02 -1.68654445E-01  3.63207080E-01
 -4.56120925E-01  1.66013843E-16 -1.00873907E-02 -5.45472647E-03 -3.29638295E-15
 -9.39248545E-02 -5.63311529E-02 -4.30469801E-15 -3.73897811E-01 -2.96743826E-01
 -1.00153351E-03  7.78567981E-17 -6.67082771E-03  1.62661939E-03 -1.78582182E-16
 -5.91318510E-04 -1.32920677E-15 -4.17862988E-02  3.15708601E-02 -1.93550461E-15
 -2.99218653E-13  5.78585455E-13 -5.67981864E-15  2.93435325E-11  4.32969029E-11
 -1.13675037E-15  1.82492485E-01 -9.42748643E-13 -1.34807485E-15  1.36967345E-01
 -2.99746631E-12 -4.88239146E-16 -5.22585311E-01 -1.24863261E-11  5.73448560E-15
 -1.50649880E+00 -6.16955911E-12  2.05061144E-14  9.00449040E-17  1.84039144E-03
  5.97921458E-14 -6.27292659E-17  1.01577115E-13  1.09214456E-16  6.69257394E-02
 -9.63823943E-13 -6.12731064E-16 -1.43444738E-13  1.44259913E-15  1.09055608E-01
 -3.07246945E-12 -8.12949702E-16  4.06222595E-14 -1.05547296E-16 -4.49289320E-03
  6.89820504E-14  6.36340548E-17  1.29823228E-17  4.39558385E-05  2.02580329E-13
  4.80677441E-17  3.23442685E-03  4.47154400E-13  7.34875255E-16 -5.94967766E-17
  1.00975262E-02 -5.85458053E-02  1.95386292E-01  1.97248009E+00  3.01455177E+00
 -2.43754275E-16 -1.01041875E-02  1.06569847E-02  1.58384085E-15 -1.58221619E-01
  1.70242057E-01  1.09843734E-15 -8.83754380E-01  8.92238759E-01  1.94391865E-03
 -5.99509416E-17 -1.05514930E-02 -6.69930557E-03 -1.77700408E-16  3.85925657E-02
  5.14320175E-16 -8.59413979E-02 -3.35130470E-02  5.49256461E-16  5.85458053E-02
 -1.95386292E-01 -1.97248009E+00 -3.01455177E+00  6.39790741E-17 -1.01041875E-02
 -1.06569847E-02 -1.42060242E-15 -1.58221619E-01 -1.70242057E-01  6.40962575E-16